********************************************************************************
*                       GENERAL UTILITY LATTICE PROGRAM                        *
*                                 Julian Gale                                  *
*                       Curtin Institute for Computation                       *
*                           Department of Chemistry                            *
*                    Curtin University, Western Australia                      *
********************************************************************************
* Version = 5.1.1 * Last modified =  11th April 2019                           *
********************************************************************************
*  single       - perform a single point run                                   *
*  md           - perform molecular dynamics run                               *
*  conp         - constant pressure calculation                                *
*  molmec       - molecule option activated, Coulomb subtract 1-2/1-3 terms    *
*  fix_molecule - fix atoms of molecule as at the start of the run             *
********************************************************************************
*                                                                              *
********************************************************************************


  Job Started  at 10:57.34 11th July       2020                               

  Number of CPUs =     1


  Total number of configurations input =      1

********************************************************************************
*  Input for Configuration =   1                                               *
********************************************************************************

  Formula = C13NH24                                                     

  Number of irreducible atoms/shells =      38


  Total number atoms/shells =      38

  Dimensionality = 0               :  Cluster


  Charge on cluster =   0.000000


  Initial cluster dipoles : x =      0.000000 e.Angs
                            y =      0.000000 e.Angs
                            z =      0.000000 e.Angs

  Temperature of configuration =  400.0     K 

  Symmetry number =      1

  Cartesian coordinates of cluster :

--------------------------------------------------------------------------------
   No.  Atomic       x           y          z         Charge      Occupancy
        Label      (Angs)      (Angs)     (Angs)        (e)         (Frac)  
--------------------------------------------------------------------------------
      1 C3    c      4.7635 *    3.5651 *    8.3972 *   0.00000    1.000000    
      2 N3    c      6.1408 *    3.8117 *    7.8510 *   0.00000    1.000000    
      3 C3    c      7.0349 *    2.7874 *    8.4742 *   0.00000    1.000000    
      4 C3    c      6.5680 *    5.1437 *    8.3954 *   0.00000    1.000000    
      5 C3    c      6.1946 *    3.7586 *    6.3122 *   0.00000    1.000000    
      6 C3    c      4.9588 *    4.4769 *    5.6644 *   0.00000    1.000000    
      7 C3    c      5.0053 *    4.4484 *    4.1264 *   0.00000    1.000000    
      8 C3    c      5.0012 *    2.9821 *    3.6460 *   0.00000    1.000000    
      9 C3    c      6.2547 *    2.2746 *    4.1865 *   0.00000    1.000000    
     10 C3    c      7.5469 *    2.9671 *    3.7063 *   0.00000    1.000000    
     11 C3    c      7.5045 *    4.4296 *    4.1801 *   0.00000    1.000000    
     12 C3    c      6.2709 *    5.1748 *    3.6381 *   0.00000    1.000000    
     13 C3    c      7.4745 *    4.4591 *    5.7274 *   0.00000    1.000000    
     14 C3    c      6.2038 *    2.2944 *    5.7366 *   0.00000    1.000000    
     15 H     c      4.0875 *    4.4054 *    8.2157 *   0.00000    1.000000    
     16 H     c      4.3446 *    2.6723 *    7.9582 *   0.00000    1.000000    
     17 H     c      4.7741 *    3.4135 *    9.4635 *   0.00000    1.000000    
     18 H     c      7.1391 *    2.9829 *    9.5216 *   0.00000    1.000000    
     19 H     c      8.0302 *    2.8228 *    8.0527 *   0.00000    1.000000    
     20 H     c      6.6413 *    1.7729 *    8.3724 *   0.00000    1.000000    
     21 H     c      6.2707 *    5.2755 *    9.4233 *   0.00000    1.000000    
     22 H     c      7.6507 *    5.2850 *    8.3432 *   0.00000    1.000000    
     23 H     c      6.0950 *    5.9381 *    7.8477 *   0.00000    1.000000    
     24 H     c      4.0356 *    3.9798 *    5.9540 *   0.00000    1.000000    
     25 H     c      4.9088 *    5.5099 *    5.9977 *   0.00000    1.000000    
     26 H     c      4.1400 *    4.9494 *    3.7392 *   0.00000    1.000000    
     27 H     c      4.0984 *    2.4722 *    3.9772 *   0.00000    1.000000    
     28 H     c      5.0341 *    2.9540 *    2.5733 *   0.00000    1.000000    
     29 H     c      6.2661 *    1.2775 *    3.7903 *   0.00000    1.000000    
     30 H     c      7.6100 *    2.9399 *    2.6301 *   0.00000    1.000000    
     31 H     c      8.4256 *    2.4604 *    4.1043 *   0.00000    1.000000    
     32 H     c      8.3626 *    4.9285 *    3.7834 *   0.00000    1.000000    
     33 H     c      6.3001 *    5.1615 *    2.5628 *   0.00000    1.000000    
     34 H     c      6.2683 *    6.2134 *    3.9675 *   0.00000    1.000000    
     35 H     c      7.4924 *    5.5037 *    6.0155 *   0.00000    1.000000    
     36 H     c      8.3700 *    3.9859 *    6.1218 *   0.00000    1.000000    
     37 H     c      5.3216 *    1.7634 *    6.0800 *   0.00000    1.000000    
     38 H     c      7.0773 *    1.7545 *    6.0884 *   0.00000    1.000000    
--------------------------------------------------------------------------------



  Molecule list generated from bond lengths :

  Total number of molecules =     1

--------------------------------------------------------------------------------
Molecule No./:  Atoms
Periodicity  :  
--------------------------------------------------------------------------------
     1  0    : C3   c     1 N3   c     2 C3   c     3 C3   c     4 C3   c     5
             : C3   c     6 C3   c     7 C3   c     8 C3   c     9 C3   c    10
             : C3   c    11 C3   c    12 C3   c    13 C3   c    14 H    c    15
             : H    c    16 H    c    17 H    c    18 H    c    19 H    c    20
             : H    c    21 H    c    22 H    c    23 H    c    24 H    c    25
             : H    c    26 H    c    27 H    c    28 H    c    29 H    c    30
             : H    c    31 H    c    32 H    c    33 H    c    34 H    c    35
             : H    c    36 H    c    37 H    c    38
--------------------------------------------------------------------------------


********************************************************************************
*  General input information                                                   *
********************************************************************************

  Species output for all configurations : 

--------------------------------------------------------------------------------
  Species    Type    Atomic    Atomic    Charge       Radii (Angs)     Library
                     Number     Mass       (e)     Cova   Ionic  VDW   Symbol
--------------------------------------------------------------------------------
    H        Core        1       1.01   0.000000   0.420  0.000  1.080          
    C3       Core        6      12.01   0.000000   0.770  0.000  1.530          
    N3       Core        7      14.01   0.000000   0.702  0.000  1.480          
--------------------------------------------------------------------------------


  Accuracy factor for short range sums = 12.000

  Time limit = Infinity

  Maximum range for interatomic potentials =        12.000000 Angstroms

  Taper potentials to zero over   1.0000 Angstroms using polynomial

  General interatomic potentials :

--------------------------------------------------------------------------------
Atom  Types   Potential      Parameter       Value         Units   Cutoffs(Ang)
  1     2                                                            Min /  Max 
--------------------------------------------------------------------------------
H    c H    c Lenn/es       Lennard epsilon 0.65913937E-03eV        3Bond 12.500
                            Lennard sigma/m  3.1950000    Ang       
                            Exponent m        12          None
                            Exponent n         6          None
--------------------------------------------------------------------------------
H    c C3   c Lenn/es       Lennard epsilon 0.16487155E-02eV        3Bond 12.500
                            Lennard sigma/m  3.5466500    Ang       
                            Exponent m        12          None
                            Exponent n         6          None
--------------------------------------------------------------------------------
C3   c C3   c Lenn/es       Lennard epsilon 0.41239575E-02eV        3Bond 12.500
                            Lennard sigma/m  3.8983000    Ang       
                            Exponent m        12          None
                            Exponent n         6          None
--------------------------------------------------------------------------------
H    c N3   c Lenn/es       Lennard epsilon 0.14873937E-02eV        3Bond 12.500
                            Lennard sigma/m  3.4285500    Ang       
                            Exponent m        12          None
                            Exponent n         6          None
--------------------------------------------------------------------------------
C3   c N3   c Lenn/es       Lennard epsilon 0.37204408E-02eV        3Bond 12.500
                            Lennard sigma/m  3.7802000    Ang       
                            Exponent m        12          None
                            Exponent n         6          None
--------------------------------------------------------------------------------
N3   c N3   c Lenn/es       Lennard epsilon 0.33564070E-02eV        3Bond 12.500
                            Lennard sigma/m  3.6621000    Ang       
                            Exponent m        12          None
                            Exponent n         6          None
--------------------------------------------------------------------------------

  Intramolecular potentials :

--------------------------------------------------------------------------------
Atom  Types   Potential      Parameter       Value         Units   Cutoffs(Ang)
  1     2                                                            Min /  Max 
--------------------------------------------------------------------------------
H    c H    c Harmonic      Harmonic k2      30.355102    eV*Ang^-2 0.000 1 Bond
                            Harmonic r0     0.65000000    Ang       
                            Harmonic k3      0.0000000    eV*Ang^-3 
                            Harmonic k4      0.0000000    eV*Ang^-4 
--------------------------------------------------------------------------------
H    c C3   c Harmonic      Harmonic k2      30.355102    eV*Ang^-2 0.000 1 Bond
                            Harmonic r0      1.0900000    Ang       
                            Harmonic k3      0.0000000    eV*Ang^-3 
                            Harmonic k4      0.0000000    eV*Ang^-4 
--------------------------------------------------------------------------------
C3   c C3   c Harmonic      Harmonic k2      30.355102    eV*Ang^-2 0.000 1 Bond
                            Harmonic r0      1.5300000    Ang       
                            Harmonic k3      0.0000000    eV*Ang^-3 
                            Harmonic k4      0.0000000    eV*Ang^-4 
--------------------------------------------------------------------------------
H    c N3   c Harmonic      Harmonic k2      30.355102    eV*Ang^-2 0.000 1 Bond
                            Harmonic r0      1.0220000    Ang       
                            Harmonic k3      0.0000000    eV*Ang^-3 
                            Harmonic k4      0.0000000    eV*Ang^-4 
--------------------------------------------------------------------------------
C3   c N3   c Harmonic      Harmonic k2      30.355102    eV*Ang^-2 0.000 1 Bond
                            Harmonic r0      1.4620000    Ang       
                            Harmonic k3      0.0000000    eV*Ang^-3 
                            Harmonic k4      0.0000000    eV*Ang^-4 
--------------------------------------------------------------------------------
N3   c N3   c Harmonic      Harmonic k2      30.355102    eV*Ang^-2 0.000 1 Bond
                            Harmonic r0      1.3940000    Ang       
                            Harmonic k3      0.0000000    eV*Ang^-3 
                            Harmonic k4      0.0000000    eV*Ang^-4 
--------------------------------------------------------------------------------

  General Three-body potentials :

--------------------------------------------------------------------------------
  Atoms       Potential      Parameter       Value         Units   Cutoffs(Ang)
  1 / 2 / 3                                                          Min /  Max 
--------------------------------------------------------------------------------
H     core    Hydrogen bond Three-body A     162239.27    eV*Ang^m  0.000  3.000
N3    core                  Three-body B     25743.752    eV*Ang^n  0.000  3.000
N3    core                                                          0.000  5.000
--------------------------------------------------------------------------------

  Intramolecular Three-body potentials :

--------------------------------------------------------------------------------
  Atoms       Potential      Parameter       Value         Units   Cutoffs(Ang)
  1 / 2 / 3                                                          Min /  Max 
--------------------------------------------------------------------------------
C3    core    Harmonic      Three-body cnst  4.3364432    eV*rad^-2 0.000 1 Bond
X     core                  Three-body angl  109.47100    degrees   0.000 1 Bond
X     core                  Three-body k4    0.0000000    eV*rad^-4 0.000 1 Bond
                            Three-body k3    0.0000000    eV*rad^-3 
--------------------------------------------------------------------------------
N3    core    Harmonic      Three-body cnst  4.3364432    eV*rad^-2 0.000 1 Bond
X     core                  Three-body angl  106.70000    degrees   0.000 1 Bond
X     core                  Three-body k4    0.0000000    eV*rad^-4 0.000 1 Bond
                            Three-body k3    0.0000000    eV*rad^-3 
--------------------------------------------------------------------------------

  Intramolecular Four-body potentials :

--------------------------------------------------------------------------------
  Atoms       Potential      Parameter       Value         Units   Cutoffs(Ang)
  1 - 4                                                             Min /  Max 
--------------------------------------------------------------------------------
X     core    Standard      Torsional const 0.43364432E-01eV         Bonded
C3    core Phase = -  3                                              single   
C3    core                                                              
X     core
--------------------------------------------------------------------------------
X     core    Standard      Torsional const 0.43364432E-01eV         Bonded
N3    core Phase = -  3                                              single   
C3    core                                                              
X     core
--------------------------------------------------------------------------------
X     core    Standard      Torsional const 0.43364432E-01eV         Bonded
N3    core Phase = -  3                                              single   
N3    core                                                              
X     core
--------------------------------------------------------------------------------

********************************************************************************
*  Output for configuration   1                                                *
********************************************************************************


  Components of energy : 

--------------------------------------------------------------------------------
  Interatomic potentials     =           3.00710091 eV    
  Three-body potentials      =           0.25037054 eV    
  Four-body potentials       =           0.05099294 eV    
  Improper torsions          =           0.00000000 eV    
  Out of plane potentials    =           0.00000000 eV    
  Monopole - monopole (real) =           0.00000000 eV    
--------------------------------------------------------------------------------
  Total lattice energy       =           3.30846439 eV    
--------------------------------------------------------------------------------
  Total lattice energy       =             319.2162 kJ/mol
--------------------------------------------------------------------------------

  Equations of motion will be integrated using the leapfrog Verlet algorithm.

********************************************************************************
*  Molecular Dynamics                                                          *
********************************************************************************

  Isothermal/baric ensemble (NPT) to be used

  Friction for temperature bath =           0.050000
  Friction for pressure    bath =           0.050000

  No. of mobile ions        =                 38

  No. of degrees of freedom =                108

  Time step                 =           0.000500 ps
  Equilibration time        =           5.000000 ps
  Production time           =           5.000000 ps
  Scaling time              =           5.000000 ps
  Scaling frequency         =           0.000500 ps
  Sampling frequency        =           0.010000 ps
  Write frequency           =           0.010000 ps
  TD-Force start time       =           0.000000 ps
  TD-Field start time       =           0.000000 ps



  Molecular dynamics equilibration :

  ** Time :            0.01000 ps :
     Properties:                   Instantaneous       Averaged
       Kinetic energy    (eV) =       1.853265          1.853265
       Potential energy  (eV) =       4.527033          4.527033
       Total energy      (eV) =       6.380298          6.380298
       Temperature       (K)  =     398.263453        398.263453
  ** Time :            0.02000 ps :
     Properties:                   Instantaneous       Averaged
       Kinetic energy    (eV) =       1.830941          1.842103
       Potential energy  (eV) =       5.641451          5.084242
       Total energy      (eV) =       7.472392          6.926345
       Temperature       (K)  =     393.466116        395.864785
  ** Time :            0.03000 ps :
     Properties:                   Instantaneous       Averaged
       Kinetic energy    (eV) =       1.866520          1.850242
       Potential energy  (eV) =       4.799228          4.989237
       Total energy      (eV) =       6.665748          6.839479
       Temperature       (K)  =     401.111850        397.613807
  ** Time :            0.04000 ps :
     Properties:                   Instantaneous       Averaged
       Kinetic energy    (eV) =       1.846012          1.849184
       Potential energy  (eV) =       4.724958          4.923168
       Total energy      (eV) =       6.570970          6.772352
       Temperature       (K)  =     396.704724        397.386536
  ** Time :            0.05000 ps :
     Properties:                   Instantaneous       Averaged
       Kinetic energy    (eV) =       1.866839          1.852715
       Potential energy  (eV) =       5.043653          4.947265
       Total energy      (eV) =       6.910492          6.799980
       Temperature       (K)  =     401.180493        398.145327
  ** Time :            0.06000 ps :
     Properties:                   Instantaneous       Averaged
       Kinetic energy    (eV) =       1.842888          1.851078
       Potential energy  (eV) =       4.940568          4.946148
       Total energy      (eV) =       6.783456          6.797226
       Temperature       (K)  =     396.033495        397.793355
  ** Time :            0.07000 ps :
     Properties:                   Instantaneous       Averaged
       Kinetic energy    (eV) =       1.854200          1.851524
       Potential energy  (eV) =       4.421187          4.871154
       Total energy      (eV) =       6.275386          6.722677
       Temperature       (K)  =     398.464283        397.889202
  ** Time :            0.08000 ps :
     Properties:                   Instantaneous       Averaged
       Kinetic energy    (eV) =       1.857994          1.852332
       Potential energy  (eV) =       4.192869          4.786368
       Total energy      (eV) =       6.050864          6.638701
       Temperature       (K)  =     399.279761        398.063022
  ** Time :            0.09000 ps :
     Properties:                   Instantaneous       Averaged
       Kinetic energy    (eV) =       1.855754          1.852713
       Potential energy  (eV) =       4.320970          4.734657
       Total energy      (eV) =       6.176724          6.587370
       Temperature       (K)  =     398.798393        398.144730
  ** Time :            0.10000 ps :
     Properties:                   Instantaneous       Averaged
       Kinetic energy    (eV) =       1.828735          1.850315
       Potential energy  (eV) =       4.714187          4.732610
       Total energy      (eV) =       6.542922          6.582925
       Temperature       (K)  =     392.991948        397.629452
  ** Time :            0.11000 ps :
     Properties:                   Instantaneous       Averaged
       Kinetic energy    (eV) =       1.863542          1.851517
       Potential energy  (eV) =       5.734580          4.823698
       Total energy      (eV) =       7.598122          6.675216
       Temperature       (K)  =     400.471889        397.887855
  ** Time :            0.12000 ps :
     Properties:                   Instantaneous       Averaged
       Kinetic energy    (eV) =       1.861090          1.852315
       Potential energy  (eV) =       5.015325          4.839667
       Total energy      (eV) =       6.876415          6.691982
       Temperature       (K)  =     399.945027        398.059286
  ** Time :            0.13000 ps :
     Properties:                   Instantaneous       Averaged
       Kinetic energy    (eV) =       1.855230          1.852539
       Potential energy  (eV) =       4.625743          4.823212
       Total energy      (eV) =       6.480972          6.675751
       Temperature       (K)  =     398.685667        398.107469
  ** Time :            0.14000 ps :
     Properties:                   Instantaneous       Averaged
       Kinetic energy    (eV) =       1.867182          1.853585
       Potential energy  (eV) =       4.621535          4.808806
       Total energy      (eV) =       6.488717          6.662391
       Temperature       (K)  =     401.254090        398.332228
  ** Time :            0.15000 ps :
     Properties:                   Instantaneous       Averaged
       Kinetic energy    (eV) =       1.846714          1.853127
       Potential energy  (eV) =       4.183008          4.767086
       Total energy      (eV) =       6.029722          6.620213
       Temperature       (K)  =     396.855704        398.233793
  ** Time :            0.16000 ps :
     Properties:                   Instantaneous       Averaged
       Kinetic energy    (eV) =       1.849249          1.852885
       Potential energy  (eV) =       4.644782          4.759442
       Total energy      (eV) =       6.494031          6.612327
       Temperature       (K)  =     397.400468        398.181710
  ** Time :            0.17000 ps :
     Properties:                   Instantaneous       Averaged
       Kinetic energy    (eV) =       1.847315          1.852557
       Potential energy  (eV) =       5.132225          4.781371
       Total energy      (eV) =       6.979540          6.633928
       Temperature       (K)  =     396.984864        398.111307
  ** Time :            0.18000 ps :
     Properties:                   Instantaneous       Averaged
       Kinetic energy    (eV) =       1.900141          1.855201
       Potential energy  (eV) =       5.384489          4.814877
       Total energy      (eV) =       7.284629          6.670078
       Temperature       (K)  =     408.336904        398.679396
  ** Time :            0.19000 ps :
     Properties:                   Instantaneous       Averaged
       Kinetic energy    (eV) =       1.842878          1.854552
       Potential energy  (eV) =       4.914221          4.820106
       Total energy      (eV) =       6.757099          6.674658
       Temperature       (K)  =     396.031325        398.540024
  ** Time :            0.20000 ps :
     Properties:                   Instantaneous       Averaged
       Kinetic energy    (eV) =       1.850833          1.854366
       Potential energy  (eV) =       5.250079          4.841605
       Total energy      (eV) =       7.100913          6.695971
       Temperature       (K)  =     397.740862        398.500066
  ** Time :            0.21000 ps :
     Properties:                   Instantaneous       Averaged
       Kinetic energy    (eV) =       1.882194          1.855691
       Potential energy  (eV) =       4.602391          4.830213
       Total energy      (eV) =       6.484585          6.685905
       Temperature       (K)  =     404.480145        398.784832
  ** Time :            0.22000 ps :
     Properties:                   Instantaneous       Averaged
       Kinetic energy    (eV) =       1.853122          1.855574
       Potential energy  (eV) =       4.245311          4.803627
       Total energy      (eV) =       6.098433          6.659201
       Temperature       (K)  =     398.232751        398.759737
  ** Time :            0.23000 ps :
     Properties:                   Instantaneous       Averaged
       Kinetic energy    (eV) =       1.842509          1.855006
       Potential energy  (eV) =       4.271798          4.780504
       Total energy      (eV) =       6.114307          6.635510
       Temperature       (K)  =     395.951907        398.637657
  ** Time :            0.24000 ps :
     Properties:                   Instantaneous       Averaged
       Kinetic energy    (eV) =       1.857893          1.855127
       Potential energy  (eV) =       4.863949          4.783981
       Total energy      (eV) =       6.721842          6.639107
       Temperature       (K)  =     399.258048        398.663507
  ** Time :            0.25000 ps :
     Properties:                   Instantaneous       Averaged
       Kinetic energy    (eV) =       1.844428          1.854699
       Potential energy  (eV) =       4.538009          4.774142
       Total energy      (eV) =       6.382437          6.628841
       Temperature       (K)  =     396.364333        398.571540
  ** Time :            0.26000 ps :
     Properties:                   Instantaneous       Averaged
       Kinetic energy    (eV) =       1.862708          1.855007
       Potential energy  (eV) =       5.526320          4.803072
       Total energy      (eV) =       7.389028          6.658079
       Temperature       (K)  =     400.292695        398.637738
  ** Time :            0.27000 ps :
     Properties:                   Instantaneous       Averaged
       Kinetic energy    (eV) =       1.876305          1.855796
       Potential energy  (eV) =       5.955040          4.845737
       Total energy      (eV) =       7.831345          6.701533
       Temperature       (K)  =     403.214650        398.807254
  ** Time :            0.28000 ps :
     Properties:                   Instantaneous       Averaged
       Kinetic energy    (eV) =       1.897900          1.857299
       Potential energy  (eV) =       4.529351          4.834438
       Total energy      (eV) =       6.427252          6.691737
       Temperature       (K)  =     407.855459        399.130404
  ** Time :            0.29000 ps :
     Properties:                   Instantaneous       Averaged
       Kinetic energy    (eV) =       1.838831          1.856663
       Potential energy  (eV) =       3.949764          4.803932
       Total energy      (eV) =       5.788595          6.660594
       Temperature       (K)  =     395.161679        398.993551
  ** Time :            0.30000 ps :
     Properties:                   Instantaneous       Averaged
       Kinetic energy    (eV) =       1.814281          1.855250
       Potential energy  (eV) =       4.737396          4.801714
       Total energy      (eV) =       6.551676          6.656964
       Temperature       (K)  =     389.885754        398.689958
  ** Time :            0.31000 ps :
     Properties:                   Instantaneous       Averaged
       Kinetic energy    (eV) =       1.866158          1.855602
       Potential energy  (eV) =       5.031928          4.809140
       Total energy      (eV) =       6.898086          6.664742
       Temperature       (K)  =     401.034128        398.765576
  ** Time :            0.32000 ps :
     Properties:                   Instantaneous       Averaged
       Kinetic energy    (eV) =       1.853862          1.855547
       Potential energy  (eV) =       4.526806          4.800317
       Total energy      (eV) =       6.380667          6.655865
       Temperature       (K)  =     398.391650        398.753891
  ** Time :            0.33000 ps :
     Properties:                   Instantaneous       Averaged
       Kinetic energy    (eV) =       1.828565          1.854730
       Potential energy  (eV) =       5.323920          4.816184
       Total energy      (eV) =       7.152485          6.670914
       Temperature       (K)  =     392.955415        398.578180
  ** Time :            0.34000 ps :
     Properties:                   Instantaneous       Averaged
       Kinetic energy    (eV) =       1.880209          1.855479
       Potential energy  (eV) =       5.083742          4.824053
       Total energy      (eV) =       6.963952          6.679532
       Temperature       (K)  =     404.053728        398.739225
  ** Time :            0.35000 ps :
     Properties:                   Instantaneous       Averaged
       Kinetic energy    (eV) =       1.873417          1.855992
       Potential energy  (eV) =       4.824275          4.824060
       Total energy      (eV) =       6.697692          6.680051
       Temperature       (K)  =     402.593958        398.849361
  ** Time :            0.36000 ps :
     Properties:                   Instantaneous       Averaged
       Kinetic energy    (eV) =       1.853978          1.855936
       Potential energy  (eV) =       4.455927          4.813834
       Total energy      (eV) =       6.309905          6.669769
       Temperature       (K)  =     398.416622        398.837340
  ** Time :            0.37000 ps :
     Properties:                   Instantaneous       Averaged
       Kinetic energy    (eV) =       1.852917          1.855854
       Potential energy  (eV) =       4.887749          4.815832
       Total energy      (eV) =       6.740666          6.671686
       Temperature       (K)  =     398.188578        398.819806
  ** Time :            0.38000 ps :
     Properties:                   Instantaneous       Averaged
       Kinetic energy    (eV) =       1.863366          1.856052
       Potential energy  (eV) =       4.505145          4.807656
       Total energy      (eV) =       6.368511          6.663707
       Temperature       (K)  =     400.434167        398.862289
  ** Time :            0.39000 ps :
     Properties:                   Instantaneous       Averaged
       Kinetic energy    (eV) =       1.845131          1.855772
       Potential energy  (eV) =       4.807031          4.807640
       Total energy      (eV) =       6.652162          6.663411
       Temperature       (K)  =     396.515486        398.802115
  ** Time :            0.40000 ps :
     Properties:                   Instantaneous       Averaged
       Kinetic energy    (eV) =       1.872995          1.856202
       Potential energy  (eV) =       5.056125          4.813852
       Total energy      (eV) =       6.929120          6.670054
       Temperature       (K)  =     402.503477        398.894649
  ** Time :            0.41000 ps :
     Properties:                   Instantaneous       Averaged
       Kinetic energy    (eV) =       1.865983          1.856441
       Potential energy  (eV) =       4.993431          4.818232
       Total energy      (eV) =       6.859415          6.674673
       Temperature       (K)  =     400.996560        398.945915
  ** Time :            0.42000 ps :
     Properties:                   Instantaneous       Averaged
       Kinetic energy    (eV) =       1.841879          1.856094
       Potential energy  (eV) =       5.097511          4.824881
       Total energy      (eV) =       6.939390          6.680975
       Temperature       (K)  =     395.816694        398.871410
  ** Time :            0.43000 ps :
     Properties:                   Instantaneous       Averaged
       Kinetic energy    (eV) =       1.847200          1.855887
       Potential energy  (eV) =       5.071057          4.830606
       Total energy      (eV) =       6.918257          6.686494
       Temperature       (K)  =     396.959991        398.826958
  ** Time :            0.44000 ps :
     Properties:                   Instantaneous       Averaged
       Kinetic energy    (eV) =       1.880982          1.856458
       Potential energy  (eV) =       4.616933          4.825750
       Total energy      (eV) =       6.497915          6.682208
       Temperature       (K)  =     404.219684        398.949520
  ** Time :            0.45000 ps :
     Properties:                   Instantaneous       Averaged
       Kinetic energy    (eV) =       1.852873          1.856378
       Potential energy  (eV) =       4.552466          4.819677
       Total energy      (eV) =       6.405338          6.676055
       Temperature       (K)  =     398.179117        398.932400
  ** Time :            0.46000 ps :
     Properties:                   Instantaneous       Averaged
       Kinetic energy    (eV) =       1.841974          1.856065
       Potential energy  (eV) =       5.038067          4.824425
       Total energy      (eV) =       6.880041          6.680489
       Temperature       (K)  =     395.837098        398.865111
  ** Time :            0.47000 ps :
     Properties:                   Instantaneous       Averaged
       Kinetic energy    (eV) =       1.864774          1.856250
       Potential energy  (eV) =       5.283310          4.834188
       Total energy      (eV) =       7.148084          6.690438
       Temperature       (K)  =     400.736645        398.904931
  ** Time :            0.48000 ps :
     Properties:                   Instantaneous       Averaged
       Kinetic energy    (eV) =       1.878991          1.856724
       Potential energy  (eV) =       5.383464          4.845631
       Total energy      (eV) =       7.262455          6.702355
       Temperature       (K)  =     403.791971        399.006744
  ** Time :            0.49000 ps :
     Properties:                   Instantaneous       Averaged
       Kinetic energy    (eV) =       1.860391          1.856799
       Potential energy  (eV) =       5.454444          4.858056
       Total energy      (eV) =       7.314835          6.714855
       Temperature       (K)  =     399.794779        399.022826
  ** Time :            0.50000 ps :
     Properties:                   Instantaneous       Averaged
       Kinetic energy    (eV) =       1.875624          1.857175
       Potential energy  (eV) =       4.692238          4.854740
       Total energy      (eV) =       6.567862          6.711915
       Temperature       (K)  =     403.068274        399.103735
  ** Time :            0.51000 ps :
     Properties:                   Instantaneous       Averaged
       Kinetic energy    (eV) =       1.852942          1.857092
       Potential energy  (eV) =       4.498736          4.847759
       Total energy      (eV) =       6.351678          6.704852
       Temperature       (K)  =     398.193934        399.085896
  ** Time :            0.52000 ps :
     Properties:                   Instantaneous       Averaged
       Kinetic energy    (eV) =       1.850126          1.856958
       Potential energy  (eV) =       4.368798          4.838549
       Total energy      (eV) =       6.218924          6.695507
       Temperature       (K)  =     397.588838        399.057106
  ** Time :            0.53000 ps :
     Properties:                   Instantaneous       Averaged
       Kinetic energy    (eV) =       1.849415          1.856816
       Potential energy  (eV) =       4.667466          4.835321
       Total energy      (eV) =       6.516881          6.692136
       Temperature       (K)  =     397.436080        399.026521
  ** Time :            0.54000 ps :
     Properties:                   Instantaneous       Averaged
       Kinetic energy    (eV) =       1.828647          1.856294
       Potential energy  (eV) =       5.015183          4.838651
       Total energy      (eV) =       6.843830          6.694946
       Temperature       (K)  =     392.972968        398.914418
  ** Time :            0.55000 ps :
     Properties:                   Instantaneous       Averaged
       Kinetic energy    (eV) =       1.862491          1.856407
       Potential energy  (eV) =       5.335578          4.847686
       Total energy      (eV) =       7.198069          6.704093
       Temperature       (K)  =     400.246016        398.938629
  ** Time :            0.56000 ps :
     Properties:                   Instantaneous       Averaged
       Kinetic energy    (eV) =       1.882475          1.856872
       Potential energy  (eV) =       4.753815          4.846010
       Total energy      (eV) =       6.636290          6.702883
       Temperature       (K)  =     404.540623        399.038665
  ** Time :            0.57000 ps :
     Properties:                   Instantaneous       Averaged
       Kinetic energy    (eV) =       1.863346          1.856986
       Potential energy  (eV) =       4.282393          4.836122
       Total energy      (eV) =       6.145739          6.693108
       Temperature       (K)  =     400.429856        399.063072
  ** Time :            0.58000 ps :
     Properties:                   Instantaneous       Averaged
       Kinetic energy    (eV) =       1.823485          1.856408
       Potential energy  (eV) =       4.776868          4.835100
       Total energy      (eV) =       6.600352          6.691509
       Temperature       (K)  =     391.863710        398.938945
  ** Time :            0.59000 ps :
     Properties:                   Instantaneous       Averaged
       Kinetic energy    (eV) =       1.869486          1.856630
       Potential energy  (eV) =       5.046440          4.838682
       Total energy      (eV) =       6.915926          6.695313
       Temperature       (K)  =     401.749311        398.986578
  ** Time :            0.60000 ps :
     Properties:                   Instantaneous       Averaged
       Kinetic energy    (eV) =       1.850465          1.856527
       Potential energy  (eV) =       4.318416          4.830011
       Total energy      (eV) =       6.168881          6.686539
       Temperature       (K)  =     397.661818        398.964499
  ** Time :            0.61000 ps :
     Properties:                   Instantaneous       Averaged
       Kinetic energy    (eV) =       1.843839          1.856319
       Potential energy  (eV) =       4.189972          4.819519
       Total energy      (eV) =       6.033811          6.675838
       Temperature       (K)  =     396.237725        398.919797
  ** Time :            0.62000 ps :
     Properties:                   Instantaneous       Averaged
       Kinetic energy    (eV) =       1.823578          1.855791
       Potential energy  (eV) =       5.034702          4.822990
       Total energy      (eV) =       6.858280          6.678781
       Temperature       (K)  =     391.883818        398.806314
  ** Time :            0.63000 ps :
     Properties:                   Instantaneous       Averaged
       Kinetic energy    (eV) =       1.853494          1.855755
       Potential energy  (eV) =       5.380215          4.831834
       Total energy      (eV) =       7.233710          6.687589
       Temperature       (K)  =     398.312695        398.798479
  ** Time :            0.64000 ps :
     Properties:                   Instantaneous       Averaged
       Kinetic energy    (eV) =       1.891103          1.856307
       Potential energy  (eV) =       4.924854          4.833288
       Total energy      (eV) =       6.815957          6.689595
       Temperature       (K)  =     406.394781        398.917171
  ** Time :            0.65000 ps :
     Properties:                   Instantaneous       Averaged
       Kinetic energy    (eV) =       1.868149          1.856489
       Potential energy  (eV) =       4.397874          4.826589
       Total energy      (eV) =       6.266023          6.683078
       Temperature       (K)  =     401.461894        398.956320
  ** Time :            0.66000 ps :
     Properties:                   Instantaneous       Averaged
       Kinetic energy    (eV) =       1.844624          1.856309
       Potential energy  (eV) =       4.467303          4.821145
       Total energy      (eV) =       6.311927          6.677455
       Temperature       (K)  =     396.406446        398.917686
  ** Time :            0.67000 ps :
     Properties:                   Instantaneous       Averaged
       Kinetic energy    (eV) =       1.825820          1.855854
       Potential energy  (eV) =       4.483444          4.816105
       Total energy      (eV) =       6.309264          6.671960
       Temperature       (K)  =     392.365472        398.819892
  ** Time :            0.68000 ps :
     Properties:                   Instantaneous       Averaged
       Kinetic energy    (eV) =       1.849342          1.855759
       Potential energy  (eV) =       4.977124          4.818473
       Total energy      (eV) =       6.826466          6.674232
       Temperature       (K)  =     397.420449        398.799312
  ** Time :            0.69000 ps :
     Properties:                   Instantaneous       Averaged
       Kinetic energy    (eV) =       1.844522          1.855596
       Potential energy  (eV) =       4.816588          4.818446
       Total energy      (eV) =       6.661111          6.674042
       Temperature       (K)  =     396.384654        398.764317
  ** Time :            0.70000 ps :
     Properties:                   Instantaneous       Averaged
       Kinetic energy    (eV) =       1.859944          1.855658
       Potential energy  (eV) =       4.705399          4.816831
       Total energy      (eV) =       6.565343          6.672489
       Temperature       (K)  =     399.698727        398.777665
  ** Time :            0.71000 ps :
     Properties:                   Instantaneous       Averaged
       Kinetic energy    (eV) =       1.842547          1.855473
       Potential energy  (eV) =       4.948964          4.818692
       Total energy      (eV) =       6.791512          6.674165
       Temperature       (K)  =     395.960227        398.737983
  ** Time :            0.72000 ps :
     Properties:                   Instantaneous       Averaged
       Kinetic energy    (eV) =       1.893637          1.856003
       Potential energy  (eV) =       5.038242          4.821741
       Total energy      (eV) =       6.931879          6.677744
       Temperature       (K)  =     406.939335        398.851891
  ** Time :            0.73000 ps :
     Properties:                   Instantaneous       Averaged
       Kinetic energy    (eV) =       1.840229          1.855787
       Potential energy  (eV) =       4.555686          4.818097
       Total energy      (eV) =       6.395915          6.673884
       Temperature       (K)  =     395.462016        398.805454
  ** Time :            0.74000 ps :
     Properties:                   Instantaneous       Averaged
       Kinetic energy    (eV) =       1.821805          1.855328
       Potential energy  (eV) =       4.524100          4.814124
       Total energy      (eV) =       6.345904          6.669452
       Temperature       (K)  =     391.502632        398.706767
  ** Time :            0.75000 ps :
     Properties:                   Instantaneous       Averaged
       Kinetic energy    (eV) =       1.845646          1.855199
       Potential energy  (eV) =       4.963466          4.816115
       Total energy      (eV) =       6.809112          6.671314
       Temperature       (K)  =     396.626048        398.679024
  ** Time :            0.76000 ps :
     Properties:                   Instantaneous       Averaged
       Kinetic energy    (eV) =       1.870742          1.855403
       Potential energy  (eV) =       4.972084          4.818167
       Total energy      (eV) =       6.842826          6.673571
       Temperature       (K)  =     402.019226        398.722974
  ** Time :            0.77000 ps :
     Properties:                   Instantaneous       Averaged
       Kinetic energy    (eV) =       1.846235          1.855284
       Potential energy  (eV) =       4.951894          4.819904
       Total energy      (eV) =       6.798129          6.675188
       Temperature       (K)  =     396.752650        398.697386
  ** Time :            0.78000 ps :
     Properties:                   Instantaneous       Averaged
       Kinetic energy    (eV) =       1.859376          1.855337
       Potential energy  (eV) =       4.766949          4.819225
       Total energy      (eV) =       6.626325          6.674562
       Temperature       (K)  =     399.576660        398.708659
  ** Time :            0.79000 ps :
     Properties:                   Instantaneous       Averaged
       Kinetic energy    (eV) =       1.876569          1.855606
       Potential energy  (eV) =       4.671489          4.817355
       Total energy      (eV) =       6.548058          6.672960
       Temperature       (K)  =     403.271366        398.766414
  ** Time :            0.80000 ps :
     Properties:                   Instantaneous       Averaged
       Kinetic energy    (eV) =       1.829272          1.855276
       Potential energy  (eV) =       5.222244          4.822416
       Total energy      (eV) =       7.051517          6.677692
       Temperature       (K)  =     393.107444        398.695677
  ** Time :            0.81000 ps :
     Properties:                   Instantaneous       Averaged
       Kinetic energy    (eV) =       1.834653          1.855022
       Potential energy  (eV) =       4.768851          4.821755
       Total energy      (eV) =       6.603504          6.676776
       Temperature       (K)  =     394.263650        398.640961
  ** Time :            0.82000 ps :
     Properties:                   Instantaneous       Averaged
       Kinetic energy    (eV) =       1.856570          1.855041
       Potential energy  (eV) =       4.068455          4.812568
       Total energy      (eV) =       5.925024          6.667609
       Temperature       (K)  =     398.973619        398.645018
  ** Time :            0.83000 ps :
     Properties:                   Instantaneous       Averaged
       Kinetic energy    (eV) =       1.853737          1.855025
       Potential energy  (eV) =       4.258981          4.805898
       Total energy      (eV) =       6.112718          6.660923
       Temperature       (K)  =     398.364909        398.641643
  ** Time :            0.84000 ps :
     Properties:                   Instantaneous       Averaged
       Kinetic energy    (eV) =       1.836663          1.854806
       Potential energy  (eV) =       5.286914          4.811625
       Total energy      (eV) =       7.123577          6.666431
       Temperature       (K)  =     394.695673        398.594667
  ** Time :            0.85000 ps :
     Properties:                   Instantaneous       Averaged
       Kinetic energy    (eV) =       1.852348          1.854777
       Potential energy  (eV) =       5.694551          4.822012
       Total energy      (eV) =       7.546899          6.676790
       Temperature       (K)  =     398.066299        398.588451
  ** Time :            0.86000 ps :
     Properties:                   Instantaneous       Averaged
       Kinetic energy    (eV) =       1.826318          1.854447
       Potential energy  (eV) =       4.850353          4.822342
       Total energy      (eV) =       6.676672          6.676788
       Temperature       (K)  =     392.472614        398.517337
  ** Time :            0.87000 ps :
     Properties:                   Instantaneous       Averaged
       Kinetic energy    (eV) =       1.827748          1.854140
       Potential energy  (eV) =       4.986031          4.824223
       Total energy      (eV) =       6.813779          6.678363
       Temperature       (K)  =     392.779884        398.451389
  ** Time :            0.88000 ps :
     Properties:                   Instantaneous       Averaged
       Kinetic energy    (eV) =       1.879696          1.854430
       Potential energy  (eV) =       4.365199          4.819007
       Total energy      (eV) =       6.244894          6.673437
       Temperature       (K)  =     403.943327        398.513797
  ** Time :            0.89000 ps :
     Properties:                   Instantaneous       Averaged
       Kinetic energy    (eV) =       1.842326          1.854294
       Potential energy  (eV) =       4.586730          4.816397
       Total energy      (eV) =       6.429056          6.670691
       Temperature       (K)  =     395.912655        398.484571
  ** Time :            0.90000 ps :
     Properties:                   Instantaneous       Averaged
       Kinetic energy    (eV) =       1.851924          1.854268
       Potential energy  (eV) =       4.756839          4.815735
       Total energy      (eV) =       6.608763          6.670003
       Temperature       (K)  =     397.975241        398.478912
  ** Time :            0.91000 ps :
     Properties:                   Instantaneous       Averaged
       Kinetic energy    (eV) =       1.864226          1.854377
       Potential energy  (eV) =       4.740521          4.814909
       Total energy      (eV) =       6.604746          6.669286
       Temperature       (K)  =     400.618838        398.502427
  ** Time :            0.92000 ps :
     Properties:                   Instantaneous       Averaged
       Kinetic energy    (eV) =       1.827108          1.854081
       Potential energy  (eV) =       4.851146          4.815303
       Total energy      (eV) =       6.678254          6.669383
       Temperature       (K)  =     392.642420        398.438732
  ** Time :            0.93000 ps :
     Properties:                   Instantaneous       Averaged
       Kinetic energy    (eV) =       1.851104          1.854049
       Potential energy  (eV) =       4.940519          4.816649
       Total energy      (eV) =       6.791622          6.670698
       Temperature       (K)  =     397.799005        398.431853
  ** Time :            0.94000 ps :
     Properties:                   Instantaneous       Averaged
       Kinetic energy    (eV) =       1.855880          1.854068
       Potential energy  (eV) =       5.585704          4.824831
       Total energy      (eV) =       7.441584          6.678899
       Temperature       (K)  =     398.825416        398.436040
  ** Time :            0.95000 ps :
     Properties:                   Instantaneous       Averaged
       Kinetic energy    (eV) =       1.881669          1.854359
       Potential energy  (eV) =       5.074097          4.827454
       Total energy      (eV) =       6.955766          6.681813
       Temperature       (K)  =     404.367433        398.498475
  ** Time :            0.96000 ps :
     Properties:                   Instantaneous       Averaged
       Kinetic energy    (eV) =       1.859416          1.854411
       Potential energy  (eV) =       4.611568          4.825206
       Total energy      (eV) =       6.470984          6.679617
       Temperature       (K)  =     399.585326        398.509797
  ** Time :            0.97000 ps :
     Properties:                   Instantaneous       Averaged
       Kinetic energy    (eV) =       1.848761          1.854353
       Potential energy  (eV) =       4.756130          4.824493
       Total energy      (eV) =       6.604890          6.678847
       Temperature       (K)  =     397.295511        398.497278
  ** Time :            0.98000 ps :
     Properties:                   Instantaneous       Averaged
       Kinetic energy    (eV) =       1.876528          1.854579
       Potential energy  (eV) =       4.567097          4.821867
       Total energy      (eV) =       6.443625          6.676446
       Temperature       (K)  =     403.262530        398.545903
  ** Time :            0.99000 ps :
     Properties:                   Instantaneous       Averaged
       Kinetic energy    (eV) =       1.851055          1.854544
       Potential energy  (eV) =       4.850432          4.822155
       Total energy      (eV) =       6.701486          6.676699
       Temperature       (K)  =     397.788412        398.538252
  ** Time :            1.00000 ps :
     Properties:                   Instantaneous       Averaged
       Kinetic energy    (eV) =       1.858263          1.854581
       Potential energy  (eV) =       5.079708          4.824731
       Total energy      (eV) =       6.937971          6.679312
       Temperature       (K)  =     399.337517        398.546245
  ** Time :            1.01000 ps :
     Properties:                   Instantaneous       Averaged
       Kinetic energy    (eV) =       1.823079          1.854269
       Potential energy  (eV) =       5.123086          4.827685
       Total energy      (eV) =       6.946165          6.681954
       Temperature       (K)  =     391.776435        398.479217
  ** Time :            1.02000 ps :
     Properties:                   Instantaneous       Averaged
       Kinetic energy    (eV) =       1.849058          1.854218
       Potential energy  (eV) =       5.203016          4.831365
       Total energy      (eV) =       7.052074          6.685583
       Temperature       (K)  =     397.359360        398.468238
  ** Time :            1.03000 ps :
     Properties:                   Instantaneous       Averaged
       Kinetic energy    (eV) =       1.865573          1.854328
       Potential energy  (eV) =       4.310656          4.826309
       Total energy      (eV) =       6.176228          6.680638
       Temperature       (K)  =     400.908303        398.491928
  ** Time :            1.04000 ps :
     Properties:                   Instantaneous       Averaged
       Kinetic energy    (eV) =       1.854492          1.854330
       Potential energy  (eV) =       4.610546          4.824235
       Total energy      (eV) =       6.465038          6.678565
       Temperature       (K)  =     398.527170        398.492267
  ** Time :            1.05000 ps :
     Properties:                   Instantaneous       Averaged
       Kinetic energy    (eV) =       1.871690          1.854495
       Potential energy  (eV) =       4.989128          4.825805
       Total energy      (eV) =       6.860818          6.680300
       Temperature       (K)  =     402.223020        398.527798
  ** Time :            1.06000 ps :
     Properties:                   Instantaneous       Averaged
       Kinetic energy    (eV) =       1.863372          1.854579
       Potential energy  (eV) =       4.642740          4.824078
       Total energy      (eV) =       6.506112          6.678657
       Temperature       (K)  =     400.435345        398.545793
  ** Time :            1.07000 ps :
     Properties:                   Instantaneous       Averaged
       Kinetic energy    (eV) =       1.809133          1.854154
       Potential energy  (eV) =       5.129057          4.826928
       Total energy      (eV) =       6.938189          6.681083
       Temperature       (K)  =     388.779448        398.454519
  ** Time :            1.08000 ps :
     Properties:                   Instantaneous       Averaged
       Kinetic energy    (eV) =       1.849355          1.854110
       Potential energy  (eV) =       4.977663          4.828324
       Total energy      (eV) =       6.827018          6.682434
       Temperature       (K)  =     397.423218        398.444970
  ** Time :            1.09000 ps :
     Properties:                   Instantaneous       Averaged
       Kinetic energy    (eV) =       1.851671          1.854087
       Potential energy  (eV) =       5.177093          4.831524
       Total energy      (eV) =       7.028764          6.685611
       Temperature       (K)  =     397.920865        398.440162
  ** Time :            1.10000 ps :
     Properties:                   Instantaneous       Averaged
       Kinetic energy    (eV) =       1.874684          1.854275
       Potential energy  (eV) =       4.264586          4.826370
       Total energy      (eV) =       6.139269          6.680644
       Temperature       (K)  =     402.866269        398.480399
  ** Time :            1.11000 ps :
     Properties:                   Instantaneous       Averaged
       Kinetic energy    (eV) =       1.830647          1.854062
       Potential energy  (eV) =       4.370873          4.822266
       Total energy      (eV) =       6.201520          6.676328
       Temperature       (K)  =     393.402828        398.434655
  ** Time :            1.12000 ps :
     Properties:                   Instantaneous       Averaged
       Kinetic energy    (eV) =       1.843521          1.853968
       Potential energy  (eV) =       5.105042          4.824791
       Total energy      (eV) =       6.948563          6.678759
       Temperature       (K)  =     396.169457        398.414430
  ** Time :            1.13000 ps :
     Properties:                   Instantaneous       Averaged
       Kinetic energy    (eV) =       1.861226          1.854032
       Potential energy  (eV) =       5.031795          4.826623
       Total energy      (eV) =       6.893022          6.680655
       Temperature       (K)  =     399.974310        398.428234
  ** Time :            1.14000 ps :
     Properties:                   Instantaneous       Averaged
       Kinetic energy    (eV) =       1.830491          1.853825
       Potential energy  (eV) =       5.208714          4.829975
       Total energy      (eV) =       7.039206          6.683800
       Temperature       (K)  =     393.369438        398.383859
  ** Time :            1.15000 ps :
     Properties:                   Instantaneous       Averaged
       Kinetic energy    (eV) =       1.851566          1.853806
       Potential energy  (eV) =       5.560434          4.836326
       Total energy      (eV) =       7.412001          6.690132
       Temperature       (K)  =     397.898393        398.379638
  ** Time :            1.16000 ps :
     Properties:                   Instantaneous       Averaged
       Kinetic energy    (eV) =       1.831522          1.853614
       Potential energy  (eV) =       4.577291          4.834093
       Total energy      (eV) =       6.408813          6.687707
       Temperature       (K)  =     393.590828        398.338355
  ** Time :            1.17000 ps :
     Properties:                   Instantaneous       Averaged
       Kinetic energy    (eV) =       1.865641          1.853716
       Potential energy  (eV) =       4.701027          4.832956
       Total energy      (eV) =       6.566667          6.686672
       Temperature       (K)  =     400.922953        398.360445
  ** Time :            1.18000 ps :
     Properties:                   Instantaneous       Averaged
       Kinetic energy    (eV) =       1.854897          1.853726
       Potential energy  (eV) =       4.715197          4.831958
       Total energy      (eV) =       6.570094          6.685684
       Temperature       (K)  =     398.614100        398.362595
  ** Time :            1.19000 ps :
     Properties:                   Instantaneous       Averaged
       Kinetic energy    (eV) =       1.835433          1.853573
       Potential energy  (eV) =       4.879368          4.832356
       Total energy      (eV) =       6.714800          6.685929
       Temperature       (K)  =     394.431285        398.329559
  ** Time :            1.20000 ps :
     Properties:                   Instantaneous       Averaged
       Kinetic energy    (eV) =       1.855175          1.853586
       Potential energy  (eV) =       4.696058          4.831221
       Total energy      (eV) =       6.551233          6.684807
       Temperature       (K)  =     398.673829        398.332428
  ** Time :            1.21000 ps :
     Properties:                   Instantaneous       Averaged
       Kinetic energy    (eV) =       1.825669          1.853355
       Potential energy  (eV) =       4.759266          4.830626
       Total energy      (eV) =       6.584935          6.683981
       Temperature       (K)  =     392.333149        398.282847
  ** Time :            1.22000 ps :
     Properties:                   Instantaneous       Averaged
       Kinetic energy    (eV) =       1.839054          1.853238
       Potential energy  (eV) =       5.532620          4.836380
       Total energy      (eV) =       7.371674          6.689618
       Temperature       (K)  =     395.209588        398.257656
  ** Time :            1.23000 ps :
     Properties:                   Instantaneous       Averaged
       Kinetic energy    (eV) =       1.877829          1.853438
       Potential energy  (eV) =       4.789843          4.836002
       Total energy      (eV) =       6.667672          6.689440
       Temperature       (K)  =     403.542145        398.300620
  ** Time :            1.24000 ps :
     Properties:                   Instantaneous       Averaged
       Kinetic energy    (eV) =       1.857384          1.853470
       Potential energy  (eV) =       4.565202          4.833818
       Total energy      (eV) =       6.422585          6.687288
       Temperature       (K)  =     399.148530        398.307457
  ** Time :            1.25000 ps :
     Properties:                   Instantaneous       Averaged
       Kinetic energy    (eV) =       1.869990          1.853602
       Potential energy  (eV) =       4.437484          4.830647
       Total energy      (eV) =       6.307474          6.684249
       Temperature       (K)  =     401.857650        398.335859
  ** Time :            1.26000 ps :
     Properties:                   Instantaneous       Averaged
       Kinetic energy    (eV) =       1.845067          1.853534
       Potential energy  (eV) =       5.022583          4.832170
       Total energy      (eV) =       6.867650          6.685705
       Temperature       (K)  =     396.501798        398.321303
  ** Time :            1.27000 ps :
     Properties:                   Instantaneous       Averaged
       Kinetic energy    (eV) =       1.882812          1.853765
       Potential energy  (eV) =       5.316771          4.835986
       Total energy      (eV) =       7.199583          6.689751
       Temperature       (K)  =     404.612953        398.370844
  ** Time :            1.28000 ps :
     Properties:                   Instantaneous       Averaged
       Kinetic energy    (eV) =       1.853577          1.853763
       Potential energy  (eV) =       4.569416          4.833904
       Total energy      (eV) =       6.422993          6.687667
       Temperature       (K)  =     398.330401        398.370528
  ** Time :            1.29000 ps :
     Properties:                   Instantaneous       Averaged
       Kinetic energy    (eV) =       1.828493          1.853567
       Potential energy  (eV) =       4.555683          4.831747
       Total energy      (eV) =       6.384176          6.685314
       Temperature       (K)  =     392.940073        398.328431
  ** Time :            1.30000 ps :
     Properties:                   Instantaneous       Averaged
       Kinetic energy    (eV) =       1.849197          1.853534
       Potential energy  (eV) =       4.646474          4.830322
       Total energy      (eV) =       6.495671          6.683855
       Temperature       (K)  =     397.389185        398.321206
  ** Time :            1.31000 ps :
     Properties:                   Instantaneous       Averaged
       Kinetic energy    (eV) =       1.841914          1.853445
       Potential energy  (eV) =       5.009010          4.831686
       Total energy      (eV) =       6.850924          6.685131
       Temperature       (K)  =     395.824110        398.302144
  ** Time :            1.32000 ps :
     Properties:                   Instantaneous       Averaged
       Kinetic energy    (eV) =       1.851588          1.853431
       Potential energy  (eV) =       4.542835          4.829497
       Total energy      (eV) =       6.394423          6.682928
       Temperature       (K)  =     397.902990        398.299120
  ** Time :            1.33000 ps :
     Properties:                   Instantaneous       Averaged
       Kinetic energy    (eV) =       1.854065          1.853436
       Potential energy  (eV) =       4.452684          4.826664
       Total energy      (eV) =       6.306749          6.680100
       Temperature       (K)  =     398.435284        398.300144
  ** Time :            1.34000 ps :
     Properties:                   Instantaneous       Averaged
       Kinetic energy    (eV) =       1.847543          1.853392
       Potential energy  (eV) =       4.916158          4.827332
       Total energy      (eV) =       6.763701          6.680724
       Temperature       (K)  =     397.033865        398.290694
  ** Time :            1.35000 ps :
     Properties:                   Instantaneous       Averaged
       Kinetic energy    (eV) =       1.854501          1.853400
       Potential energy  (eV) =       4.692619          4.826334
       Total energy      (eV) =       6.547121          6.679734
       Temperature       (K)  =     398.529097        398.292460
  ** Time :            1.36000 ps :
     Properties:                   Instantaneous       Averaged
       Kinetic energy    (eV) =       1.832658          1.853248
       Potential energy  (eV) =       4.571152          4.824458
       Total energy      (eV) =       6.403809          6.677705
       Temperature       (K)  =     393.834964        398.259685
  ** Time :            1.37000 ps :
     Properties:                   Instantaneous       Averaged
       Kinetic energy    (eV) =       1.831813          1.853091
       Potential energy  (eV) =       4.600583          4.822824
       Total energy      (eV) =       6.432397          6.675915
       Temperature       (K)  =     393.653523        398.226063
  ** Time :            1.38000 ps :
     Properties:                   Instantaneous       Averaged
       Kinetic energy    (eV) =       1.857214          1.853121
       Potential energy  (eV) =       4.598865          4.821201
       Total energy      (eV) =       6.456078          6.674322
       Temperature       (K)  =     399.112027        398.232483
  ** Time :            1.39000 ps :
     Properties:                   Instantaneous       Averaged
       Kinetic energy    (eV) =       1.861510          1.853181
       Potential energy  (eV) =       4.325795          4.817637
       Total energy      (eV) =       6.187305          6.670818
       Temperature       (K)  =     400.035328        398.245453
  ** Time :            1.40000 ps :
     Properties:                   Instantaneous       Averaged
       Kinetic energy    (eV) =       1.856551          1.853205
       Potential energy  (eV) =       4.696288          4.816770
       Total energy      (eV) =       6.552839          6.669975
       Temperature       (K)  =     398.969689        398.250626
  ** Time :            1.41000 ps :
     Properties:                   Instantaneous       Averaged
       Kinetic energy    (eV) =       1.835266          1.853078
       Potential energy  (eV) =       5.223637          4.819656
       Total energy      (eV) =       7.058903          6.672734
       Temperature       (K)  =     394.395431        398.223284
  ** Time :            1.42000 ps :
     Properties:                   Instantaneous       Averaged
       Kinetic energy    (eV) =       1.866828          1.853175
       Potential energy  (eV) =       4.795306          4.819484
       Total energy      (eV) =       6.662134          6.672659
       Temperature       (K)  =     401.178112        398.244093
  ** Time :            1.43000 ps :
     Properties:                   Instantaneous       Averaged
       Kinetic energy    (eV) =       1.828254          1.853001
       Potential energy  (eV) =       4.499340          4.817245
       Total energy      (eV) =       6.327594          6.670246
       Temperature       (K)  =     392.888614        398.206642
  ** Time :            1.44000 ps :
     Properties:                   Instantaneous       Averaged
       Kinetic energy    (eV) =       1.852274          1.852996
       Potential energy  (eV) =       4.589297          4.815662
       Total energy      (eV) =       6.441571          6.668658
       Temperature       (K)  =     398.050506        398.205558
  ** Time :            1.45000 ps :
     Properties:                   Instantaneous       Averaged
       Kinetic energy    (eV) =       1.846167          1.852949
       Potential energy  (eV) =       4.879470          4.816102
       Total energy      (eV) =       6.725637          6.669051
       Temperature       (K)  =     396.738087        398.195437
  ** Time :            1.46000 ps :
     Properties:                   Instantaneous       Averaged
       Kinetic energy    (eV) =       1.816646          1.852700
       Potential energy  (eV) =       4.391671          4.813195
       Total energy      (eV) =       6.208317          6.665895
       Temperature       (K)  =     390.394154        398.142004
  ** Time :            1.47000 ps :
     Properties:                   Instantaneous       Averaged
       Kinetic energy    (eV) =       1.868935          1.852810
       Potential energy  (eV) =       4.488879          4.810989
       Total energy      (eV) =       6.357814          6.663800
       Temperature       (K)  =     401.630890        398.165738
  ** Time :            1.48000 ps :
     Properties:                   Instantaneous       Averaged
       Kinetic energy    (eV) =       1.839641          1.852721
       Potential energy  (eV) =       4.901811          4.811603
       Total energy      (eV) =       6.741452          6.664324
       Temperature       (K)  =     395.335757        398.146616
  ** Time :            1.49000 ps :
     Properties:                   Instantaneous       Averaged
       Kinetic energy    (eV) =       1.834595          1.852600
       Potential energy  (eV) =       4.821559          4.811670
       Total energy      (eV) =       6.656154          6.664269
       Temperature       (K)  =     394.251255        398.120473
  ** Time :            1.50000 ps :
     Properties:                   Instantaneous       Averaged
       Kinetic energy    (eV) =       1.853943          1.852609
       Potential energy  (eV) =       5.062015          4.813339
       Total energy      (eV) =       6.915958          6.665947
       Temperature       (K)  =     398.409113        398.122397
  ** Time :            1.51000 ps :
     Properties:                   Instantaneous       Averaged
       Kinetic energy    (eV) =       1.878143          1.852778
       Potential energy  (eV) =       4.743530          4.812876
       Total energy      (eV) =       6.621673          6.665654
       Temperature       (K)  =     403.609678        398.158737
  ** Time :            1.52000 ps :
     Properties:                   Instantaneous       Averaged
       Kinetic energy    (eV) =       1.837532          1.852678
       Potential energy  (eV) =       4.629777          4.811672
       Total energy      (eV) =       6.467309          6.664349
       Temperature       (K)  =     394.882396        398.137182
  ** Time :            1.53000 ps :
     Properties:                   Instantaneous       Averaged
       Kinetic energy    (eV) =       1.826307          1.852505
       Potential energy  (eV) =       4.470931          4.809445
       Total energy      (eV) =       6.297238          6.661950
       Temperature       (K)  =     392.470115        398.100142
  ** Time :            1.54000 ps :
     Properties:                   Instantaneous       Averaged
       Kinetic energy    (eV) =       1.866185          1.852594
       Potential energy  (eV) =       4.971907          4.810500
       Total energy      (eV) =       6.838092          6.663094
       Temperature       (K)  =     401.039915        398.119232
  ** Time :            1.55000 ps :
     Properties:                   Instantaneous       Averaged
       Kinetic energy    (eV) =       1.843452          1.852535
       Potential energy  (eV) =       4.961998          4.811477
       Total energy      (eV) =       6.805450          6.664012
       Temperature       (K)  =     396.154692        398.106557
  ** Time :            1.56000 ps :
     Properties:                   Instantaneous       Averaged
       Kinetic energy    (eV) =       1.867136          1.852629
       Potential energy  (eV) =       5.007228          4.812732
       Total energy      (eV) =       6.874363          6.665360
       Temperature       (K)  =     401.244203        398.126670
  ** Time :            1.57000 ps :
     Properties:                   Instantaneous       Averaged
       Kinetic energy    (eV) =       1.824780          1.852451
       Potential energy  (eV) =       4.823386          4.812800
       Total energy      (eV) =       6.648166          6.665251
       Temperature       (K)  =     392.142122        398.088552
  ** Time :            1.58000 ps :
     Properties:                   Instantaneous       Averaged
       Kinetic energy    (eV) =       1.833864          1.852334
       Potential energy  (eV) =       4.410323          4.810252
       Total energy      (eV) =       6.244186          6.662586
       Temperature       (K)  =     394.094130        398.063271
  ** Time :            1.59000 ps :
     Properties:                   Instantaneous       Averaged
       Kinetic energy    (eV) =       1.847921          1.852306
       Potential energy  (eV) =       5.122984          4.812219
       Total energy      (eV) =       6.970905          6.664525
       Temperature       (K)  =     397.114908        398.057307
  ** Time :            1.60000 ps :
     Properties:                   Instantaneous       Averaged
       Kinetic energy    (eV) =       1.836790          1.852209
       Potential energy  (eV) =       4.751563          4.811840
       Total energy      (eV) =       6.588353          6.664049
       Temperature       (K)  =     394.722992        398.036467
  ** Time :            1.61000 ps :
     Properties:                   Instantaneous       Averaged
       Kinetic energy    (eV) =       1.851135          1.852202
       Potential energy  (eV) =       4.250452          4.808353
       Total energy      (eV) =       6.101587          6.660555
       Temperature       (K)  =     397.805768        398.035034
  ** Time :            1.62000 ps :
     Properties:                   Instantaneous       Averaged
       Kinetic energy    (eV) =       1.854725          1.852218
       Potential energy  (eV) =       4.724944          4.807838
       Total energy      (eV) =       6.579670          6.660056
       Temperature       (K)  =     398.577289        398.038381
  ** Time :            1.63000 ps :
     Properties:                   Instantaneous       Averaged
       Kinetic energy    (eV) =       1.851523          1.852214
       Potential energy  (eV) =       4.926964          4.808569
       Total energy      (eV) =       6.778487          6.660783
       Temperature       (K)  =     397.889071        398.037465
  ** Time :            1.64000 ps :
     Properties:                   Instantaneous       Averaged
       Kinetic energy    (eV) =       1.852422          1.852215
       Potential energy  (eV) =       4.492092          4.806639
       Total energy      (eV) =       6.344514          6.658854
       Temperature       (K)  =     398.082344        398.037739
  ** Time :            1.65000 ps :
     Properties:                   Instantaneous       Averaged
       Kinetic energy    (eV) =       1.840390          1.852143
       Potential energy  (eV) =       4.522062          4.804915
       Total energy      (eV) =       6.362452          6.657058
       Temperature       (K)  =     395.496634        398.022338
  ** Time :            1.66000 ps :
     Properties:                   Instantaneous       Averaged
       Kinetic energy    (eV) =       1.852798          1.852147
       Potential energy  (eV) =       4.595193          4.803651
       Total energy      (eV) =       6.447992          6.655798
       Temperature       (K)  =     398.163087        398.023186
  ** Time :            1.67000 ps :
     Properties:                   Instantaneous       Averaged
       Kinetic energy    (eV) =       1.868297          1.852244
       Potential energy  (eV) =       4.669902          4.802850
       Total energy      (eV) =       6.538199          6.655094
       Temperature       (K)  =     401.493867        398.043969
  ** Time :            1.68000 ps :
     Properties:                   Instantaneous       Averaged
       Kinetic energy    (eV) =       1.836310          1.852149
       Potential energy  (eV) =       5.033610          4.804224
       Total energy      (eV) =       6.869920          6.656373
       Temperature       (K)  =     394.619847        398.023587
  ** Time :            1.69000 ps :
     Properties:                   Instantaneous       Averaged
       Kinetic energy    (eV) =       1.851891          1.852147
       Potential energy  (eV) =       5.297962          4.807146
       Total energy      (eV) =       7.149853          6.659293
       Temperature       (K)  =     397.968079        398.023259
  ** Time :            1.70000 ps :
     Properties:                   Instantaneous       Averaged
       Kinetic energy    (eV) =       1.855651          1.852168
       Potential energy  (eV) =       4.868973          4.807509
       Total energy      (eV) =       6.724624          6.659677
       Temperature       (K)  =     398.776097        398.027687
  ** Time :            1.71000 ps :
     Properties:                   Instantaneous       Averaged
       Kinetic energy    (eV) =       1.851250          1.852163
       Potential energy  (eV) =       4.625469          4.806445
       Total energy      (eV) =       6.476719          6.658607
       Temperature       (K)  =     397.830450        398.026534
  ** Time :            1.72000 ps :
     Properties:                   Instantaneous       Averaged
       Kinetic energy    (eV) =       1.840073          1.852092
[...]
       Potential energy  (eV) =       4.624777          4.766267
       Total energy      (eV) =       6.375737          6.649409
       Temperature       (K)  =     376.278326        404.684007
  ** Time :            4.50000 ps :
     Properties:                   Instantaneous       Averaged
       Kinetic energy    (eV) =       1.760412          1.882870
       Potential energy  (eV) =       4.934766          4.766641
       Total energy      (eV) =       6.695178          6.649511
       Temperature       (K)  =     378.309492        404.625397
  ** Time :            4.51000 ps :
     Properties:                   Instantaneous       Averaged
       Kinetic energy    (eV) =       1.789717          1.882663
       Potential energy  (eV) =       4.825907          4.766773
       Total energy      (eV) =       6.615624          6.649436
       Temperature       (K)  =     384.607182        404.581010
  ** Time :            4.52000 ps :
     Properties:                   Instantaneous       Averaged
       Kinetic energy    (eV) =       2.078479          1.883096
       Potential energy  (eV) =       4.338462          4.765825
       Total energy      (eV) =       6.416941          6.648921
       Temperature       (K)  =     446.661577        404.674109
  ** Time :            4.53000 ps :
     Properties:                   Instantaneous       Averaged
       Kinetic energy    (eV) =       2.511147          1.884483
       Potential energy  (eV) =       5.041886          4.766435
       Total energy      (eV) =       7.553032          6.650917
       Temperature       (K)  =     539.641033        404.972049
  ** Time :            4.54000 ps :
     Properties:                   Instantaneous       Averaged
       Kinetic energy    (eV) =       1.733419          1.884150
       Potential energy  (eV) =       4.278497          4.765360
       Total energy      (eV) =       6.011916          6.649510
       Temperature       (K)  =     372.508683        404.900544
  ** Time :            4.55000 ps :
     Properties:                   Instantaneous       Averaged
       Kinetic energy    (eV) =       1.562170          1.883442
       Potential energy  (eV) =       5.261172          4.766450
       Total energy      (eV) =       6.823341          6.649892
       Temperature       (K)  =     335.707577        404.748472
  ** Time :            4.56000 ps :
     Properties:                   Instantaneous       Averaged
       Kinetic energy    (eV) =       1.387034          1.882354
       Potential energy  (eV) =       4.792958          4.766508
       Total energy      (eV) =       6.179992          6.648861
       Temperature       (K)  =     298.071164        404.514530
  ** Time :            4.57000 ps :
     Properties:                   Instantaneous       Averaged
       Kinetic energy    (eV) =       1.770185          1.882108
       Potential energy  (eV) =       4.607076          4.766159
       Total energy      (eV) =       6.377261          6.648267
       Temperature       (K)  =     380.409733        404.461784
  ** Time :            4.58000 ps :
     Properties:                   Instantaneous       Averaged
       Kinetic energy    (eV) =       2.427449          1.883299
       Potential energy  (eV) =       5.035211          4.766746
       Total energy      (eV) =       7.462659          6.650045
       Temperature       (K)  =     521.654519        404.717664
  ** Time :            4.59000 ps :
     Properties:                   Instantaneous       Averaged
       Kinetic energy    (eV) =       2.308719          1.884226
       Potential energy  (eV) =       4.821156          4.766865
       Total energy      (eV) =       7.129875          6.651091
       Temperature       (K)  =     496.139731        404.916840
  ** Time :            4.60000 ps :
     Properties:                   Instantaneous       Averaged
       Kinetic energy    (eV) =       1.793683          1.884029
       Potential energy  (eV) =       4.439364          4.766153
       Total energy      (eV) =       6.233047          6.650182
       Temperature       (K)  =     385.459332        404.874541
  ** Time :            4.61000 ps :
     Properties:                   Instantaneous       Averaged
       Kinetic energy    (eV) =       1.569891          1.883347
       Potential energy  (eV) =       4.655063          4.765912
       Total energy      (eV) =       6.224954          6.649259
       Temperature       (K)  =     337.366766        404.728104
  ** Time :            4.62000 ps :
     Properties:                   Instantaneous       Averaged
       Kinetic energy    (eV) =       1.410171          1.882323
       Potential energy  (eV) =       4.969609          4.766353
       Total energy      (eV) =       6.379779          6.648676
       Temperature       (K)  =     303.043208        404.508006
  ** Time :            4.63000 ps :
     Properties:                   Instantaneous       Averaged
       Kinetic energy    (eV) =       1.867248          1.882291
       Potential energy  (eV) =       5.169754          4.767224
       Total energy      (eV) =       7.037002          6.649515
       Temperature       (K)  =     401.268366        404.501009
  ** Time :            4.64000 ps :
     Properties:                   Instantaneous       Averaged
       Kinetic energy    (eV) =       2.121895          1.882807
       Potential energy  (eV) =       4.406291          4.766446
       Total energy      (eV) =       6.528186          6.649253
       Temperature       (K)  =     455.991556        404.611980
  ** Time :            4.65000 ps :
     Properties:                   Instantaneous       Averaged
       Kinetic energy    (eV) =       2.263708          1.883626
       Potential energy  (eV) =       4.580021          4.766045
       Total energy      (eV) =       6.843729          6.649672
       Temperature       (K)  =     486.466818        404.788012
  ** Time :            4.66000 ps :
     Properties:                   Instantaneous       Averaged
       Kinetic energy    (eV) =       2.079878          1.884047
       Potential energy  (eV) =       5.057661          4.766671
       Total energy      (eV) =       7.137538          6.650718
       Temperature       (K)  =     446.962125        404.878515
  ** Time :            4.67000 ps :
     Properties:                   Instantaneous       Averaged
       Kinetic energy    (eV) =       1.719567          1.883695
       Potential energy  (eV) =       4.643713          4.766408
       Total energy      (eV) =       6.363280          6.650103
       Temperature       (K)  =     369.531878        404.802826
  ** Time :            4.68000 ps :
     Properties:                   Instantaneous       Averaged
       Kinetic energy    (eV) =       1.751626          1.883413
       Potential energy  (eV) =       4.887925          4.766667
       Total energy      (eV) =       6.639551          6.650080
       Temperature       (K)  =     376.421437        404.742182
  ** Time :            4.69000 ps :
     Properties:                   Instantaneous       Averaged
       Kinetic energy    (eV) =       1.698305          1.883018
       Potential energy  (eV) =       4.641625          4.766401
       Total energy      (eV) =       6.339930          6.649419
       Temperature       (K)  =     364.962829        404.657365
  ** Time :            4.70000 ps :
     Properties:                   Instantaneous       Averaged
       Kinetic energy    (eV) =       1.799126          1.882840
       Potential energy  (eV) =       4.858403          4.766597
       Total energy      (eV) =       6.657529          6.649436
       Temperature       (K)  =     386.629033        404.619006
  ** Time :            4.71000 ps :
     Properties:                   Instantaneous       Averaged
       Kinetic energy    (eV) =       1.917595          1.882914
       Potential energy  (eV) =       4.635524          4.766318
       Total energy      (eV) =       6.553119          6.649232
       Temperature       (K)  =     412.087927        404.634864
  ** Time :            4.72000 ps :
     Properties:                   Instantaneous       Averaged
       Kinetic energy    (eV) =       2.095900          1.883365
       Potential energy  (eV) =       4.892190          4.766585
       Total energy      (eV) =       6.988090          6.649950
       Temperature       (K)  =     450.405250        404.731835
  ** Time :            4.73000 ps :
     Properties:                   Instantaneous       Averaged
       Kinetic energy    (eV) =       1.877700          1.883353
       Potential energy  (eV) =       4.744884          4.766539
       Total energy      (eV) =       6.622583          6.649892
       Temperature       (K)  =     403.514389        404.729261
  ** Time :            4.74000 ps :
     Properties:                   Instantaneous       Averaged
       Kinetic energy    (eV) =       1.766736          1.883107
       Potential energy  (eV) =       4.873730          4.766765
       Total energy      (eV) =       6.640466          6.649872
       Temperature       (K)  =     379.668407        404.676390
  ** Time :            4.75000 ps :
     Properties:                   Instantaneous       Averaged
       Kinetic energy    (eV) =       1.687485          1.882695
       Potential energy  (eV) =       4.565670          4.766342
       Total energy      (eV) =       6.253155          6.649037
       Temperature       (K)  =     362.637505        404.587887
  ** Time :            4.76000 ps :
     Properties:                   Instantaneous       Averaged
       Kinetic energy    (eV) =       1.791170          1.882503
       Potential energy  (eV) =       4.727322          4.766260
       Total energy      (eV) =       6.518492          6.648763
       Temperature       (K)  =     384.919376        404.546567
  ** Time :            4.77000 ps :
     Properties:                   Instantaneous       Averaged
       Kinetic energy    (eV) =       2.069715          1.882895
       Potential energy  (eV) =       4.971248          4.766690
       Total energy      (eV) =       7.040963          6.649585
       Temperature       (K)  =     444.778150        404.630910
  ** Time :            4.78000 ps :
     Properties:                   Instantaneous       Averaged
       Kinetic energy    (eV) =       2.049058          1.883243
       Potential energy  (eV) =       4.843789          4.766851
       Total energy      (eV) =       6.892847          6.650094
       Temperature       (K)  =     440.339053        404.705613
  ** Time :            4.79000 ps :
     Properties:                   Instantaneous       Averaged
       Kinetic energy    (eV) =       1.912022          1.883303
       Potential energy  (eV) =       4.868597          4.767063
       Total energy      (eV) =       6.780619          6.650366
       Temperature       (K)  =     410.890126        404.718524
  ** Time :            4.80000 ps :
     Properties:                   Instantaneous       Averaged
       Kinetic energy    (eV) =       1.832385          1.883197
       Potential energy  (eV) =       4.642460          4.766804
       Total energy      (eV) =       6.474844          6.650001
       Temperature       (K)  =     393.776248        404.695728
  ** Time :            4.81000 ps :
     Properties:                   Instantaneous       Averaged
       Kinetic energy    (eV) =       1.992599          1.883424
       Potential energy  (eV) =       4.775672          4.766822
       Total energy      (eV) =       6.768271          6.650246
       Temperature       (K)  =     428.206020        404.744606
  ** Time :            4.82000 ps :
     Properties:                   Instantaneous       Averaged
       Kinetic energy    (eV) =       1.887315          1.883432
       Potential energy  (eV) =       4.845642          4.766986
       Total energy      (eV) =       6.732957          6.650418
       Temperature       (K)  =     405.580650        404.746341
  ** Time :            4.83000 ps :
     Properties:                   Instantaneous       Averaged
       Kinetic energy    (eV) =       1.719273          1.883092
       Potential energy  (eV) =       4.438693          4.766306
       Total energy      (eV) =       6.157966          6.649398
       Temperature       (K)  =     369.468811        404.673302
  ** Time :            4.84000 ps :
     Properties:                   Instantaneous       Averaged
       Kinetic energy    (eV) =       1.916250          1.883161
       Potential energy  (eV) =       4.760858          4.766295
       Total energy      (eV) =       6.677108          6.649456
       Temperature       (K)  =     411.798732        404.688024
  ** Time :            4.85000 ps :
     Properties:                   Instantaneous       Averaged
       Kinetic energy    (eV) =       1.734423          1.882854
       Potential energy  (eV) =       5.007888          4.766793
       Total energy      (eV) =       6.742311          6.649647
       Temperature       (K)  =     372.724471        404.622120
  ** Time :            4.86000 ps :
     Properties:                   Instantaneous       Averaged
       Kinetic energy    (eV) =       1.629625          1.882333
       Potential energy  (eV) =       4.931328          4.767131
       Total energy      (eV) =       6.560953          6.649465
       Temperature       (K)  =     350.203576        404.510148
  ** Time :            4.87000 ps :
     Properties:                   Instantaneous       Averaged
       Kinetic energy    (eV) =       2.093205          1.882766
       Potential energy  (eV) =       4.969050          4.767546
       Total energy      (eV) =       7.062255          6.650312
       Temperature       (K)  =     449.826059        404.603199
  ** Time :            4.88000 ps :
     Properties:                   Instantaneous       Averaged
       Kinetic energy    (eV) =       2.077265          1.883165
       Potential energy  (eV) =       4.328871          4.766647
       Total energy      (eV) =       6.406136          6.649812
       Temperature       (K)  =     446.400678        404.688849
  ** Time :            4.89000 ps :
     Properties:                   Instantaneous       Averaged
       Kinetic energy    (eV) =       2.266946          1.883950
       Potential energy  (eV) =       4.355033          4.765805
       Total energy      (eV) =       6.621979          6.649755
       Temperature       (K)  =     487.162675        404.857507
  ** Time :            4.90000 ps :
     Properties:                   Instantaneous       Averaged
       Kinetic energy    (eV) =       2.278433          1.884755
       Potential energy  (eV) =       5.017899          4.766320
       Total energy      (eV) =       7.296332          6.651075
       Temperature       (K)  =     489.631324        405.030515
  ** Time :            4.91000 ps :
     Properties:                   Instantaneous       Averaged
       Kinetic energy    (eV) =       1.975338          1.884939
       Potential energy  (eV) =       5.174599          4.767151
       Total energy      (eV) =       7.149937          6.652091
       Temperature       (K)  =     424.496713        405.070161
  ** Time :            4.92000 ps :
     Properties:                   Instantaneous       Averaged
       Kinetic energy    (eV) =       1.577609          1.884315
       Potential energy  (eV) =       4.586008          4.766783
       Total energy      (eV) =       6.163617          6.651098
       Temperature       (K)  =     339.025376        404.935924
  ** Time :            4.93000 ps :
     Properties:                   Instantaneous       Averaged
       Kinetic energy    (eV) =       1.512427          1.883560
       Potential energy  (eV) =       5.081726          4.767422
       Total energy      (eV) =       6.594153          6.650982
       Temperature       (K)  =     325.017991        404.773819
  ** Time :            4.94000 ps :
     Properties:                   Instantaneous       Averaged
       Kinetic energy    (eV) =       1.565072          1.882915
       Potential energy  (eV) =       4.875007          4.767640
       Total energy      (eV) =       6.440079          6.650555
       Temperature       (K)  =     336.331273        404.635271
  ** Time :            4.95000 ps :
     Properties:                   Instantaneous       Averaged
       Kinetic energy    (eV) =       2.330374          1.883819
       Potential energy  (eV) =       4.642260          4.767387
       Total energy      (eV) =       6.972634          6.651206
       Temperature       (K)  =     500.793289        404.829530
  ** Time :            4.96000 ps :
     Properties:                   Instantaneous       Averaged
       Kinetic energy    (eV) =       2.468480          1.884998
       Potential energy  (eV) =       4.392961          4.766632
       Total energy      (eV) =       6.861441          6.651630
       Temperature       (K)  =     530.472108        405.082841
  ** Time :            4.97000 ps :
     Properties:                   Instantaneous       Averaged
       Kinetic energy    (eV) =       1.933388          1.885096
       Potential energy  (eV) =       4.588189          4.766273
       Total energy      (eV) =       6.521577          6.651368
       Temperature       (K)  =     415.481767        405.103765
  ** Time :            4.98000 ps :
     Properties:                   Instantaneous       Averaged
       Kinetic energy    (eV) =       1.557509          1.884438
       Potential energy  (eV) =       4.999654          4.766741
       Total energy      (eV) =       6.557163          6.651179
       Temperature       (K)  =     334.706079        404.962404
  ** Time :            4.99000 ps :
     Properties:                   Instantaneous       Averaged
       Kinetic energy    (eV) =       1.539570          1.883747
       Potential energy  (eV) =       5.130190          4.767470
       Total energy      (eV) =       6.669760          6.651216
       Temperature       (K)  =     330.850874        404.813884
  ** Time :            5.00000 ps :
     Properties:                   Instantaneous       Averaged
       Kinetic energy    (eV) =       2.190173          1.884359
       Potential energy  (eV) =       4.913677          4.767762
       Total energy      (eV) =       7.103849          6.652122
       Temperature       (K)  =     470.664312        404.945584

  Peak dynamic memory used =       0.64 MB 


  Timing analysis for GULP :

--------------------------------------------------------------------------------
  Task / Subroutine                                          Time (Seconds)
--------------------------------------------------------------------------------
  Calculation of real space energy and derivatives                8.3502
  Calculation of three-body energy and derivatives                0.3339
  Calculation of four-body energy and derivatives                 1.4919
  Calculation of molecules and connectivity                       0.0002
  Calculation of matrix inversion                                 0.0214
  Molecular dynamics - update of geometry                         0.0239
  Molecular dynamics - predictor                                  0.0133
  Molecular dynamics - corrector                                  0.1655
  Molecular dynamics - velocity correction                        0.1212
  Global summation overhead                                       0.0248
--------------------------------------------------------------------------------
  Total CPU time                                                 10.9465
--------------------------------------------------------------------------------


  GULP ASCII trajectory file written as ff_md_gulp.trg


  Job Finished at 10:57.45 11th July       2020                               

