********************************************************************************
*                       GENERAL UTILITY LATTICE PROGRAM                        *
*                                 Julian Gale                                  *
*                       Curtin Institute for Computation                       *
*                           Department of Chemistry                            *
*                    Curtin University, Western Australia                      *
********************************************************************************
* Version = 5.1.1 * Last modified =  11th April 2019                           *
********************************************************************************
*  optimise     - perform optimisation run                                     *
*  conp         - constant pressure calculation                                *
*  molmec       - molecule option activated, Coulomb subtract 1-2/1-3 terms    *
*  fix_molecule - fix atoms of molecule as at the start of the run             *
*  conjugate    - use conjugate gradients minimiser                            *
********************************************************************************
*                                                                              *
********************************************************************************


  Job Started  at 09:48.49 24th April      2020                               

  Number of CPUs =     1


  Total number of configurations input =      1

********************************************************************************
*  Input for Configuration =   1                                               *
********************************************************************************

  Formula = O48Si24C14N6H38                                             

  Number of irreducible atoms/shells =     130


  Total number atoms/shells =     130

  Dimensionality = 3               :  Bulk   



  Cartesian lattice vectors (Angstroms) :

       14.110542    0.000000    0.000000
        0.000000   17.892402    0.000000
        0.000000    0.000000    5.261948

  Cell parameters (Angstroms/Degrees):

  a =      14.1105    alpha =  90.0000
  b =      17.8924    beta  =  90.0000
  c =       5.2619    gamma =  90.0000

  Initial cell volume =        1328.491826 Angs**3

  Temperature of configuration =  0.000     K 

  Pressure of configuration =         0.000 GPa 

  Fractional coordinates of asymmetric unit :

--------------------------------------------------------------------------------
   No.  Atomic       x           y          z         Charge      Occupancy
        Label      (Frac)      (Frac)     (Frac)        (e)         (Frac)  
--------------------------------------------------------------------------------
      1 O3    c    0.269768    0.959838    0.089691     0.00000    1.000000    
      2 O3    c    0.769768 *  0.459838 *  0.089691 *   0.00000    1.000000    
      3 O3    c    0.730167 *  0.959838 *  0.089691 *   0.00000    1.000000    
      4 O3    c    0.230167 *  0.459838 *  0.089691 *   0.00000    1.000000    
      5 O3    c    0.269768 *  0.959838 *  0.589690 *   0.00000    1.000000    
      6 O3    c    0.769768 *  0.459838 *  0.589690 *   0.00000    1.000000    
      7 O3    c    0.730167 *  0.959838 *  0.589690 *   0.00000    1.000000    
      8 O3    c    0.230167 *  0.459838 *  0.589690 *   0.00000    1.000000    
      9 O3    c    0.407566 *  0.028227 *  0.339692 *   0.00000    1.000000    
     10 O3    c    0.907567 *  0.528227 *  0.339692 *   0.00000    1.000000    
     11 O3    c    0.592368 *  0.028227 *  0.339692 *   0.00000    1.000000    
     12 O3    c    0.092369 *  0.528227 *  0.339692 *   0.00000    1.000000    
     13 O3    c    0.407566 *  0.891449 *  0.839691 *   0.00000    1.000000    
     14 O3    c    0.907567 *  0.391449 *  0.839691 *   0.00000    1.000000    
     15 O3    c    0.592368 *  0.891449 *  0.839691 *   0.00000    1.000000    
     16 O3    c    0.092369 *  0.391449 *  0.839691 *   0.00000    1.000000    
     17 O3    c    0.230637 *  0.082629 *  0.339692 *   0.00000    1.000000    
     18 O3    c    0.730637 *  0.582629 *  0.339692 *   0.00000    1.000000    
     19 O3    c    0.769298 *  0.082629 *  0.339692 *   0.00000    1.000000    
     20 O3    c    0.269298 *  0.582629 *  0.339692 *   0.00000    1.000000    
     21 O3    c    0.230637 *  0.837046 *  0.839691 *   0.00000    1.000000    
     22 O3    c    0.730637 *  0.337046 *  0.839691 *   0.00000    1.000000    
     23 O3    c    0.769298 *  0.837046 *  0.839691 *   0.00000    1.000000    
     24 O3    c    0.269298 *  0.337046 *  0.839691 *   0.00000    1.000000    
     25 O3    c    0.091891 *  0.179105 *  0.339692 *   0.00000    1.000000    
     26 O3    c    0.591891 *  0.679105 *  0.339692 *   0.00000    1.000000    
     27 O3    c    0.908045 *  0.179105 *  0.339692 *   0.00000    1.000000    
     28 O3    c    0.408045 *  0.679105 *  0.339692 *   0.00000    1.000000    
     29 O3    c    0.091891 *  0.740571 *  0.839691 *   0.00000    1.000000    
     30 O3    c    0.591891 *  0.240571 *  0.839691 *   0.00000    1.000000    
     31 O3    c    0.908045 *  0.740571 *  0.839691 *   0.00000    1.000000    
     32 O3    c    0.408045 *  0.240571 *  0.839691 *   0.00000    1.000000    
     33 O3    c    0.249968 *  0.209838 *  0.089691 *   0.00000    1.000000    
     34 O3    c    0.749968 *  0.709838 *  0.089691 *   0.00000    1.000000    
     35 O3    c    0.749968 *  0.209838 *  0.089691 *   0.00000    1.000000    
     36 O3    c    0.249968 *  0.709838 *  0.089691 *   0.00000    1.000000    
     37 O3    c    0.249968 *  0.709838 *  0.589690 *   0.00000    1.000000    
     38 O3    c    0.749968 *  0.209838 *  0.589690 *   0.00000    1.000000    
     39 O3    c    0.749968 *  0.709838 *  0.589690 *   0.00000    1.000000    
     40 O3    c    0.249968 *  0.209838 *  0.589690 *   0.00000    1.000000    
     41 O3    c    0.999967 *  0.285769 *  0.589363 *   0.00000    1.000000    
     42 O3    c    0.499967 *  0.785769 *  0.589363 *   0.00000    1.000000    
     43 O3    c    0.999967 *  0.633907 *  0.089364 *   0.00000    1.000000    
     44 O3    c    0.499967 *  0.133907 *  0.089364 *   0.00000    1.000000    
     45 O3    c    0.999967 *  0.633907 *  0.590017 *   0.00000    1.000000    
     46 O3    c    0.499967 *  0.133907 *  0.590017 *   0.00000    1.000000    
     47 O3    c    0.999967 *  0.285769 *  0.090018 *   0.00000    1.000000    
     48 O3    c    0.499967 *  0.785769 *  0.090018 *   0.00000    1.000000    
     49 Si3   c    0.295413 *  0.008150 *  0.339692 *   0.00000    1.000000    
     50 Si3   c    0.795413 *  0.508150 *  0.339692 *   0.00000    1.000000    
     51 Si3   c    0.704521 *  0.008150 *  0.339692 *   0.00000    1.000000    
     52 Si3   c    0.204522 *  0.508150 *  0.339692 *   0.00000    1.000000    
     53 Si3   c    0.295413 *  0.911525 *  0.839691 *   0.00000    1.000000    
     54 Si3   c    0.795413 *  0.411525 *  0.839691 *   0.00000    1.000000    
     55 Si3   c    0.704521 *  0.911525 *  0.839691 *   0.00000    1.000000    
     56 Si3   c    0.204522 *  0.411525 *  0.839691 *   0.00000    1.000000    
     57 Si3   c    0.206079 *  0.170660 *  0.339692 *   0.00000    1.000000    
     58 Si3   c    0.706078 *  0.670660 *  0.339692 *   0.00000    1.000000    
     59 Si3   c    0.793856 *  0.170660 *  0.339692 *   0.00000    1.000000    
     60 Si3   c    0.293856 *  0.670660 *  0.339692 *   0.00000    1.000000    
     61 Si3   c    0.206079 *  0.749016 *  0.839691 *   0.00000    1.000000    
     62 Si3   c    0.706078 *  0.249016 *  0.839691 *   0.00000    1.000000    
     63 Si3   c    0.793856 *  0.749016 *  0.839691 *   0.00000    1.000000    
     64 Si3   c    0.293856 *  0.249016 *  0.839691 *   0.00000    1.000000    
     65 Si3   c    0.999967 *  0.233108 *  0.339692 *   0.00000    1.000000    
     66 Si3   c    0.499967 *  0.733108 *  0.339692 *   0.00000    1.000000    
     67 Si3   c    0.999967 *  0.686567 *  0.839691 *   0.00000    1.000000    
     68 Si3   c    0.499967 *  0.186567 *  0.839691 *   0.00000    1.000000    
     69 Si3   c    0.499967 *  0.081631 *  0.339692 *   0.00000    1.000000    
     70 Si3   c    0.999967 *  0.581631 *  0.339692 *   0.00000    1.000000    
     71 Si3   c    0.499967 *  0.838045 *  0.839691 *   0.00000    1.000000    
     72 Si3   c    0.999967 *  0.338045 *  0.839691 *   0.00000    1.000000    
     73 C3    c    0.349272 *  0.455553 *  0.921001 *   0.00000    1.000000    
     74 C3    c    0.448696 *  0.484439 *  0.984563 *   0.00000    1.000000    
     75 C3    c    0.453311 *  0.569868 *  0.961872 *   0.00000    1.000000    
     76 N3    c    0.473284 *  0.460493 *  0.243187 *   0.00000    1.000000    
     77 C3    c    0.573960 *  0.463082 *  0.307341 *   0.00000    1.000000    
     78 C3    c    0.588055 *  0.452772 *  0.593951 *   0.00000    1.000000    
     79 N3    c    0.535391 *  0.387884 *  0.685104 *   0.00000    1.000000    
     80 C3    c    0.557728 *  0.365298 *  0.944262 *   0.00000    1.000000    
     81 C3    c    0.500118 *  0.296545 *  0.022533 *   0.00000    1.000000    
     82 N3    c    0.523677 *  0.273945 *  0.282306 *   0.00000    1.000000    
     83 H     c    0.327211 *  0.473007 *  0.727789 *   0.00000    1.000000    
     84 H     c    0.297018 *  0.477659 *  0.059651 *   0.00000    1.000000    
     85 H     c    0.346423 *  0.393547 *  0.928413 *   0.00000    1.000000    
     86 H     c    0.499340 *  0.460231 *  0.841409 *   0.00000    1.000000    
     87 H     c    0.402758 *  0.595980 *  0.096816 *   0.00000    1.000000    
     88 H     c    0.435295 *  0.588115 *  0.766307 *   0.00000    1.000000    
     89 H     c    0.525025 *  0.591695 *  0.005568 *   0.00000    1.000000    
     90 H47   c    0.451652 *  0.405987 *  0.265805 *   0.00000    1.000000    
     91 H     c    0.603209 *  0.518298 *  0.251728 *   0.00000    1.000000    
     92 H     c    0.616212 *  0.419868 *  0.202349 *   0.00000    1.000000    
     93 H     c    0.567744 *  0.505680 *  0.694638 *   0.00000    1.000000    
     94 H     c    0.664636 *  0.443668 *  0.632870 *   0.00000    1.000000    
     95 H47   c    0.464412 *  0.400919 *  0.675134 *   0.00000    1.000000    
     96 H     c    0.546427 *  0.410234 *  0.089822 *   0.00000    1.000000    
     97 H     c    0.634634 *  0.351234 *  0.952723 *   0.00000    1.000000    
     98 H     c    0.423473 *  0.311363 *  0.017590 *   0.00000    1.000000    
     99 H     c    0.510364 *  0.252715 *  0.872945 *   0.00000    1.000000    
    100 H47   c    0.479961 *  0.231153 *  0.339101 *   0.00000    1.000000    
    101 H47   c    0.591106 *  0.251990 *  0.286109 *   0.00000    1.000000    
    102 C3    c    0.002509 *  0.120513 *  0.412450 *   0.00000    1.000000    
    103 C3    c    0.011720 *  0.035494 *  0.436657 *   0.00000    1.000000    
    104 C3    c    0.100362 *  0.007136 *  0.297912 *   0.00000    1.000000    
    105 N3    c    0.015583 *  0.015953 *  0.707473 *   0.00000    1.000000    
    106 C3    c    0.995720 *  0.937873 *  0.768719 *   0.00000    1.000000    
    107 C3    c    0.021942 *  0.921175 *  0.045552 *   0.00000    1.000000    
    108 N3    c    0.981115 *  0.977062 *  0.215363 *   0.00000    1.000000    
    109 C3    c    0.987261 *  0.958778 *  0.484646 *   0.00000    1.000000    
    110 C3    c    0.941895 *  0.019936 *  0.647745 *   0.00000    1.000000    
    111 N3    c    0.947726 *  0.000723 *  0.917683 *   0.00000    1.000000    
    112 H     c    0.000324 *  0.138000 *  0.210502 *   0.00000    1.000000    
    113 H     c    0.063659 *  0.148447 *  0.505172 *   0.00000    1.000000    
    114 H     c    0.936684 *  0.141015 *  0.504913 *   0.00000    1.000000    
    115 H     c    0.948124 *  0.009540 *  0.342631 *   0.00000    1.000000    
    116 H     c    0.164809 *  0.032716 *  0.381809 *   0.00000    1.000000    
    117 H     c    0.097411 *  0.021439 *  0.092969 *   0.00000    1.000000    
    118 H     c    0.107776 *  0.945583 *  0.312034 *   0.00000    1.000000    
    119 H47   c    0.966177 *  0.047748 *  0.802265 *   0.00000    1.000000    
    120 H     c    0.038639 *  0.901238 *  0.643292 *   0.00000    1.000000    
    121 H     c    0.919603 *  0.922661 *  0.735338 *   0.00000    1.000000    
    122 H     c    0.101037 *  0.917220 *  0.062939 *   0.00000    1.000000    
    123 H     c    0.993274 *  0.865424 *  0.098452 *   0.00000    1.000000    
    124 H47   c    0.016539 *  0.026511 *  0.183795 *   0.00000    1.000000    
    125 H     c    0.061339 *  0.949032 *  0.554604 *   0.00000    1.000000    
    126 H     c    0.948602 *  0.905256 *  0.516630 *   0.00000    1.000000    
    127 H     c    0.981811 *  0.072923 *  0.617946 *   0.00000    1.000000    
    128 H     c    0.868774 *  0.030268 *  0.572508 *   0.00000    1.000000    
    129 H47   c    0.923180 *  0.044400 *  0.026084 *   0.00000    1.000000    
    130 H47   c    0.902775 *  0.956803 *  0.955754 *   0.00000    1.000000    
--------------------------------------------------------------------------------



  Molecule list generated from bond lengths :

  Total number of molecules =     3

--------------------------------------------------------------------------------
Molecule No./:  Atoms
Periodicity  :  
--------------------------------------------------------------------------------
     1  3    : O3   c     1 O3   c     2 O3   c     3 O3   c     4 O3   c     5
             : O3   c     6 O3   c     7 O3   c     8 O3   c     9 O3   c    10
             : O3   c    11 O3   c    12 O3   c    13 O3   c    14 O3   c    15
             : O3   c    16 O3   c    17 O3   c    18 O3   c    19 O3   c    20
             : O3   c    21 O3   c    22 O3   c    23 O3   c    24 O3   c    25
             : O3   c    26 O3   c    27 O3   c    28 O3   c    29 O3   c    30
             : O3   c    31 O3   c    32 O3   c    33 O3   c    34 O3   c    35
             : O3   c    36 O3   c    37 O3   c    38 O3   c    39 O3   c    40
             : O3   c    41 O3   c    42 O3   c    43 O3   c    44 O3   c    45
             : O3   c    46 O3   c    47 O3   c    48 Si3  c    49 Si3  c    50
             : Si3  c    51 Si3  c    52 Si3  c    53 Si3  c    54 Si3  c    55
             : Si3  c    56 Si3  c    57 Si3  c    58 Si3  c    59 Si3  c    60
             : Si3  c    61 Si3  c    62 Si3  c    63 Si3  c    64 Si3  c    65
             : Si3  c    66 Si3  c    67 Si3  c    68 Si3  c    69 Si3  c    70
             : Si3  c    71 Si3  c    72
     2  0    : C3   c    73 C3   c    74 C3   c    75 N3   c    76 C3   c    77
             : C3   c    78 N3   c    79 C3   c    80 C3   c    81 N3   c    82
             : H    c    83 H    c    84 H    c    85 H    c    86 H    c    87
             : H    c    88 H    c    89 H47  c    90 H    c    91 H    c    92
             : H    c    93 H    c    94 H47  c    95 H    c    96 H    c    97
             : H    c    98 H    c    99 H47  c   100 H47  c   101
     3  0    : C3   c   102 C3   c   103 C3   c   104 N3   c   105 C3   c   106
             : C3   c   107 N3   c   108 C3   c   109 C3   c   110 N3   c   111
             : H    c   112 H    c   113 H    c   114 H    c   115 H    c   116
             : H    c   117 H    c   118 H47  c   119 H    c   120 H    c   121
             : H    c   122 H    c   123 H47  c   124 H    c   125 H    c   126
             : H    c   127 H    c   128 H47  c   129 H47  c   130
--------------------------------------------------------------------------------


********************************************************************************
*  General input information                                                   *
********************************************************************************

  Species output for all configurations : 

--------------------------------------------------------------------------------
  Species    Type    Atomic    Atomic    Charge       Radii (Angs)     Library
                     Number     Mass       (e)     Cova   Ionic  VDW   Symbol
--------------------------------------------------------------------------------
    H        Core        1       1.01   0.000000   0.420  0.000  1.080          
    H47      Core        1       1.01   0.000000   0.420  0.000  0.000          
    C3       Core        6      12.01   0.000000   0.770  0.000  1.530          
    N3       Core        7      14.01   0.000000   0.702  0.000  1.480          
    O3       Core        8      16.00   0.000000   0.800  0.000  1.360          
    Si3      Core       14      28.09   0.000000   0.937  0.000  2.100          
--------------------------------------------------------------------------------


  Lattice summation method               =    Ewald          (3-D)
                                         =    Parry          (2-D)
                                         =    Saunders et al (1-D)
  Accuracy factor for lattice sums       =   12.000


  Time limit = Infinity

  Maximum range for interatomic potentials =    100000.000000 Angstroms

  General interatomic potentials :

--------------------------------------------------------------------------------
Atom  Types   Potential      Parameter       Value         Units   Cutoffs(Ang)
  1     2                                                            Min /  Max 
--------------------------------------------------------------------------------
H    c H    c Lenn/es       Lennard epsilon 0.65913937E-03eV        3Bond 12.500
                            Lennard sigma/m  3.1950000    Ang       
                            Exponent m        12          None
                            Exponent n         6          None
--------------------------------------------------------------------------------
H    c H47  c Lenn/es       Lennard epsilon 0.65913937E-03eV        3Bond 12.500
                            Lennard sigma/m  3.1950000    Ang       
                            Exponent m        12          None
                            Exponent n         6          None
--------------------------------------------------------------------------------
H47  c H47  c Lenn/es       Lennard epsilon 0.65913937E-03eV        3Bond 12.500
                            Lennard sigma/m  3.1950000    Ang       
                            Exponent m        12          None
                            Exponent n         6          None
--------------------------------------------------------------------------------
H    c C3   c Lenn/es       Lennard epsilon 0.16487155E-02eV        3Bond 12.500
                            Lennard sigma/m  3.5466500    Ang       
                            Exponent m        12          None
                            Exponent n         6          None
--------------------------------------------------------------------------------
H47  c C3   c Lenn/es       Lennard epsilon 0.16487155E-02eV        3Bond 12.500
                            Lennard sigma/m  3.5466500    Ang       
                            Exponent m        12          None
                            Exponent n         6          None
--------------------------------------------------------------------------------
C3   c C3   c Lenn/es       Lennard epsilon 0.41239575E-02eV        3Bond 12.500
                            Lennard sigma/m  3.8983000    Ang       
                            Exponent m        12          None
                            Exponent n         6          None
--------------------------------------------------------------------------------
H    c N3   c Lenn/es       Lennard epsilon 0.14873937E-02eV        3Bond 12.500
                            Lennard sigma/m  3.4285500    Ang       
                            Exponent m        12          None
                            Exponent n         6          None
--------------------------------------------------------------------------------
H47  c N3   c Lenn/es       Lennard epsilon 0.14873937E-02eV        3Bond 12.500
                            Lennard sigma/m  3.4285500    Ang       
                            Exponent m        12          None
                            Exponent n         6          None
--------------------------------------------------------------------------------
C3   c N3   c Lenn/es       Lennard epsilon 0.37204408E-02eV        3Bond 12.500
                            Lennard sigma/m  3.7802000    Ang       
                            Exponent m        12          None
                            Exponent n         6          None
--------------------------------------------------------------------------------
N3   c N3   c Lenn/es       Lennard epsilon 0.33564070E-02eV        3Bond 12.500
                            Lennard sigma/m  3.6621000    Ang       
                            Exponent m        12          None
                            Exponent n         6          None
--------------------------------------------------------------------------------
H    c O3   c Lenn/es       Lennard epsilon 0.16539083E-02eV        3Bond 12.500
                            Lennard sigma/m  3.2998000    Ang       
                            Exponent m        12          None
                            Exponent n         6          None
--------------------------------------------------------------------------------
H47  c O3   c Lenn/es       Lennard epsilon 0.16539083E-02eV        3Bond 12.500
                            Lennard sigma/m  3.2998000    Ang       
                            Exponent m        12          None
                            Exponent n         6          None
--------------------------------------------------------------------------------
C3   c O3   c Lenn/es       Lennard epsilon 0.41369464E-02eV        3Bond 12.500
                            Lennard sigma/m  3.6514500    Ang       
                            Exponent m        12          None
                            Exponent n         6          None
--------------------------------------------------------------------------------
N3   c O3   c Lenn/es       Lennard epsilon 0.37321588E-02eV        3Bond 12.500
                            Lennard sigma/m  3.5333500    Ang       
                            Exponent m        12          None
                            Exponent n         6          None
--------------------------------------------------------------------------------
O3   c O3   c Lenn/es       Lennard epsilon 0.41499761E-02eV        3Bond 12.500
                            Lennard sigma/m  3.4046000    Ang       
                            Exponent m        12          None
                            Exponent n         6          None
--------------------------------------------------------------------------------
H    c Si3  c Lenn/es       Lennard epsilon 0.29767085E-02eV        3Bond 12.500
                            Lennard sigma/m  3.7325000    Ang       
                            Exponent m        12          None
                            Exponent n         6          None
--------------------------------------------------------------------------------
H47  c Si3  c Lenn/es       Lennard epsilon 0.29767085E-02eV        3Bond 12.500
                            Lennard sigma/m  3.7325000    Ang       
                            Exponent m        12          None
                            Exponent n         6          None
--------------------------------------------------------------------------------
C3   c Si3  c Lenn/es       Lennard epsilon 0.74456869E-02eV        3Bond 12.500
                            Lennard sigma/m  4.0841500    Ang       
                            Exponent m        12          None
                            Exponent n         6          None
--------------------------------------------------------------------------------
N3   c Si3  c Lenn/es       Lennard epsilon 0.67171491E-02eV        3Bond 12.500
                            Lennard sigma/m  3.9660500    Ang       
                            Exponent m        12          None
                            Exponent n         6          None
--------------------------------------------------------------------------------
O3   c Si3  c Lenn/es       Lennard epsilon 0.74691379E-02eV        3Bond 12.500
                            Lennard sigma/m  3.8373000    Ang       
                            Exponent m        12          None
                            Exponent n         6          None
--------------------------------------------------------------------------------
Si3  c Si3  c Lenn/es       Lennard epsilon 0.13442974E-01eV        3Bond 12.500
                            Lennard sigma/m  4.2700000    Ang       
                            Exponent m        12          None
                            Exponent n         6          None
--------------------------------------------------------------------------------

  Intramolecular potentials :

--------------------------------------------------------------------------------
Atom  Types   Potential      Parameter       Value         Units   Cutoffs(Ang)
  1     2                                                            Min /  Max 
--------------------------------------------------------------------------------
H    c H    c Harmonic      Harmonic k2      30.355102    eV*Ang^-2 0.000 1 Bond
                            Harmonic r0     0.65000000    Ang       
                            Harmonic k3      0.0000000    eV*Ang^-3 
                            Harmonic k4      0.0000000    eV*Ang^-4 
--------------------------------------------------------------------------------
H    c H47  c Harmonic      Harmonic k2      30.355102    eV*Ang^-2 0.000 1 Bond
                            Harmonic r0     0.65000000    Ang       
                            Harmonic k3      0.0000000    eV*Ang^-3 
                            Harmonic k4      0.0000000    eV*Ang^-4 
--------------------------------------------------------------------------------
H47  c H47  c Harmonic      Harmonic k2      30.355102    eV*Ang^-2 0.000 1 Bond
                            Harmonic r0     0.65000000    Ang       
                            Harmonic k3      0.0000000    eV*Ang^-3 
                            Harmonic k4      0.0000000    eV*Ang^-4 
--------------------------------------------------------------------------------
H    c C3   c Harmonic      Harmonic k2      30.355102    eV*Ang^-2 0.000 1 Bond
                            Harmonic r0      1.0900000    Ang       
                            Harmonic k3      0.0000000    eV*Ang^-3 
                            Harmonic k4      0.0000000    eV*Ang^-4 
--------------------------------------------------------------------------------
H47  c C3   c Harmonic      Harmonic k2      30.355102    eV*Ang^-2 0.000 1 Bond
                            Harmonic r0      1.0900000    Ang       
                            Harmonic k3      0.0000000    eV*Ang^-3 
                            Harmonic k4      0.0000000    eV*Ang^-4 
--------------------------------------------------------------------------------
C3   c C3   c Harmonic      Harmonic k2      30.355102    eV*Ang^-2 0.000 1 Bond
                            Harmonic r0      1.5300000    Ang       
                            Harmonic k3      0.0000000    eV*Ang^-3 
                            Harmonic k4      0.0000000    eV*Ang^-4 
--------------------------------------------------------------------------------
H    c N3   c Harmonic      Harmonic k2      30.355102    eV*Ang^-2 0.000 1 Bond
                            Harmonic r0      1.0220000    Ang       
                            Harmonic k3      0.0000000    eV*Ang^-3 
                            Harmonic k4      0.0000000    eV*Ang^-4 
--------------------------------------------------------------------------------
H47  c N3   c Harmonic      Harmonic k2      30.355102    eV*Ang^-2 0.000 1 Bond
                            Harmonic r0      1.0220000    Ang       
                            Harmonic k3      0.0000000    eV*Ang^-3 
                            Harmonic k4      0.0000000    eV*Ang^-4 
--------------------------------------------------------------------------------
C3   c N3   c Harmonic      Harmonic k2      30.355102    eV*Ang^-2 0.000 1 Bond
                            Harmonic r0      1.4620000    Ang       
                            Harmonic k3      0.0000000    eV*Ang^-3 
                            Harmonic k4      0.0000000    eV*Ang^-4 
--------------------------------------------------------------------------------
N3   c N3   c Harmonic      Harmonic k2      30.355102    eV*Ang^-2 0.000 1 Bond
                            Harmonic r0      1.3940000    Ang       
                            Harmonic k3      0.0000000    eV*Ang^-3 
                            Harmonic k4      0.0000000    eV*Ang^-4 
--------------------------------------------------------------------------------
H    c O3   c Harmonic      Harmonic k2      30.355102    eV*Ang^-2 0.000 1 Bond
                            Harmonic r0     0.98000000    Ang       
                            Harmonic k3      0.0000000    eV*Ang^-3 
                            Harmonic k4      0.0000000    eV*Ang^-4 
--------------------------------------------------------------------------------
H47  c O3   c Harmonic      Harmonic k2      30.355102    eV*Ang^-2 0.000 1 Bond
                            Harmonic r0     0.98000000    Ang       
                            Harmonic k3      0.0000000    eV*Ang^-3 
                            Harmonic k4      0.0000000    eV*Ang^-4 
--------------------------------------------------------------------------------
C3   c O3   c Harmonic      Harmonic k2      30.355102    eV*Ang^-2 0.000 1 Bond
                            Harmonic r0      1.4200000    Ang       
                            Harmonic k3      0.0000000    eV*Ang^-3 
                            Harmonic k4      0.0000000    eV*Ang^-4 
--------------------------------------------------------------------------------
N3   c O3   c Harmonic      Harmonic k2      30.355102    eV*Ang^-2 0.000 1 Bond
                            Harmonic r0      1.3520000    Ang       
                            Harmonic k3      0.0000000    eV*Ang^-3 
                            Harmonic k4      0.0000000    eV*Ang^-4 
--------------------------------------------------------------------------------
O3   c O3   c Harmonic      Harmonic k2      30.355102    eV*Ang^-2 0.000 1 Bond
                            Harmonic r0      1.3100000    Ang       
                            Harmonic k3      0.0000000    eV*Ang^-3 
                            Harmonic k4      0.0000000    eV*Ang^-4 
--------------------------------------------------------------------------------
H    c Si3  c Harmonic      Harmonic k2      30.355102    eV*Ang^-2 0.000 1 Bond
                            Harmonic r0      1.2570000    Ang       
                            Harmonic k3      0.0000000    eV*Ang^-3 
                            Harmonic k4      0.0000000    eV*Ang^-4 
--------------------------------------------------------------------------------
H47  c Si3  c Harmonic      Harmonic k2      30.355102    eV*Ang^-2 0.000 1 Bond
                            Harmonic r0      1.2570000    Ang       
                            Harmonic k3      0.0000000    eV*Ang^-3 
                            Harmonic k4      0.0000000    eV*Ang^-4 
--------------------------------------------------------------------------------
C3   c Si3  c Harmonic      Harmonic k2      30.355102    eV*Ang^-2 0.000 1 Bond
                            Harmonic r0      1.6970000    Ang       
                            Harmonic k3      0.0000000    eV*Ang^-3 
                            Harmonic k4      0.0000000    eV*Ang^-4 
--------------------------------------------------------------------------------
N3   c Si3  c Harmonic      Harmonic k2      30.355102    eV*Ang^-2 0.000 1 Bond
                            Harmonic r0      1.6290000    Ang       
                            Harmonic k3      0.0000000    eV*Ang^-3 
                            Harmonic k4      0.0000000    eV*Ang^-4 
--------------------------------------------------------------------------------
O3   c Si3  c Harmonic      Harmonic k2      30.355102    eV*Ang^-2 0.000 1 Bond
                            Harmonic r0      1.5870000    Ang       
                            Harmonic k3      0.0000000    eV*Ang^-3 
                            Harmonic k4      0.0000000    eV*Ang^-4 
--------------------------------------------------------------------------------
Si3  c Si3  c Harmonic      Harmonic k2      30.355102    eV*Ang^-2 0.000 1 Bond
                            Harmonic r0      1.8640000    Ang       
                            Harmonic k3      0.0000000    eV*Ang^-3 
                            Harmonic k4      0.0000000    eV*Ang^-4 
--------------------------------------------------------------------------------

  General Three-body potentials :

--------------------------------------------------------------------------------
  Atoms       Potential      Parameter       Value         Units   Cutoffs(Ang)
  1 / 2 / 3                                                          Min /  Max 
--------------------------------------------------------------------------------
H     core    Hydrogen bond Three-body A     162239.27    eV*Ang^m  0.000  3.000
N3    core                  Three-body B     25743.752    eV*Ang^n  0.000  3.000
N3    core                                                          0.000  5.000
--------------------------------------------------------------------------------
H     core    Hydrogen bond Three-body A     162239.27    eV*Ang^m  0.000  3.000
N3    core                  Three-body B     25743.752    eV*Ang^n  0.000  3.000
O3    core                                                          0.000  5.000
--------------------------------------------------------------------------------
H     core    Hydrogen bond Three-body A     162239.27    eV*Ang^m  0.000  3.000
O3    core                  Three-body B     25743.752    eV*Ang^n  0.000  3.000
O3    core                                                          0.000  5.000
--------------------------------------------------------------------------------
H47   core    Hydrogen bond Three-body A     162239.27    eV*Ang^m  0.000  3.000
N3    core                  Three-body B     25743.752    eV*Ang^n  0.000  3.000
N3    core                                                          0.000  5.000
--------------------------------------------------------------------------------
H47   core    Hydrogen bond Three-body A     162239.27    eV*Ang^m  0.000  3.000
N3    core                  Three-body B     25743.752    eV*Ang^n  0.000  3.000
O3    core                                                          0.000  5.000
--------------------------------------------------------------------------------
H47   core    Hydrogen bond Three-body A     162239.27    eV*Ang^m  0.000  3.000
O3    core                  Three-body B     25743.752    eV*Ang^n  0.000  3.000
O3    core                                                          0.000  5.000
--------------------------------------------------------------------------------

  Intramolecular Three-body potentials :

--------------------------------------------------------------------------------
  Atoms       Potential      Parameter       Value         Units   Cutoffs(Ang)
  1 / 2 / 3                                                          Min /  Max 
--------------------------------------------------------------------------------
C3    core    Harmonic      Three-body cnst  4.3364432    eV*rad^-2 0.000 1 Bond
X     core                  Three-body angl  109.47100    degrees   0.000 1 Bond
X     core                  Three-body k4    0.0000000    eV*rad^-4 0.000 1 Bond
                            Three-body k3    0.0000000    eV*rad^-3 
--------------------------------------------------------------------------------
N3    core    Harmonic      Three-body cnst  4.3364432    eV*rad^-2 0.000 1 Bond
X     core                  Three-body angl  106.70000    degrees   0.000 1 Bond
X     core                  Three-body k4    0.0000000    eV*rad^-4 0.000 1 Bond
                            Three-body k3    0.0000000    eV*rad^-3 
--------------------------------------------------------------------------------
O3    core    Harmonic      Three-body cnst  4.3364432    eV*rad^-2 0.000 1 Bond
X     core                  Three-body angl  104.51000    degrees   0.000 1 Bond
X     core                  Three-body k4    0.0000000    eV*rad^-4 0.000 1 Bond
                            Three-body k3    0.0000000    eV*rad^-3 
--------------------------------------------------------------------------------
Si3   core    Harmonic      Three-body cnst  4.3364432    eV*rad^-2 0.000 1 Bond
X     core                  Three-body angl  109.47100    degrees   0.000 1 Bond
X     core                  Three-body k4    0.0000000    eV*rad^-4 0.000 1 Bond
                            Three-body k3    0.0000000    eV*rad^-3 
--------------------------------------------------------------------------------

  Intramolecular Four-body potentials :

--------------------------------------------------------------------------------
  Atoms       Potential      Parameter       Value         Units   Cutoffs(Ang)
  1 - 4                                                             Min /  Max 
--------------------------------------------------------------------------------
X     core    Standard      Torsional const 0.43364432E-01eV         Bonded
C3    core Phase = -  3                                              single   
C3    core                                                              
X     core
--------------------------------------------------------------------------------
X     core    Standard      Torsional const 0.43364432E-01eV         Bonded
N3    core Phase = -  3                                              single   
C3    core                                                              
X     core
--------------------------------------------------------------------------------
X     core    Standard      Torsional const 0.43364432E-01eV         Bonded
N3    core Phase = -  3                                              single   
N3    core                                                              
X     core
--------------------------------------------------------------------------------
X     core    Standard      Torsional const 0.43364432E-01eV         Bonded
O3    core Phase = -  3                                              single   
C3    core                                                              
X     core
--------------------------------------------------------------------------------
X     core    Standard      Torsional const 0.43364432E-01eV         Bonded
O3    core Phase = -  3                                              single   
N3    core                                                              
X     core
--------------------------------------------------------------------------------
X     core    Standard      Torsional const 0.43364432E-01eV         Bonded
O3    core Phase = -  2                                              single   
O3    core                                                              
X     core
--------------------------------------------------------------------------------
X     core    Standard      Torsional const 0.43364432E-01eV         Bonded
Si3   core Phase = -  3                                              single   
C3    core                                                              
X     core
--------------------------------------------------------------------------------
X     core    Standard      Torsional const 0.43364432E-01eV         Bonded
Si3   core Phase = -  3                                              single   
N3    core                                                              
X     core
--------------------------------------------------------------------------------
X     core    Standard      Torsional const 0.43364432E-01eV         Bonded
Si3   core Phase = -  3                                              single   
O3    core                                                              
X     core
--------------------------------------------------------------------------------
X     core    Standard      Torsional const 0.43364432E-01eV         Bonded
Si3   core Phase = -  3                                              single   
Si3   core                                                              
X     core
--------------------------------------------------------------------------------

********************************************************************************
*  Output for configuration   1                                                *
********************************************************************************


  Components of energy : 

--------------------------------------------------------------------------------
  Interatomic potentials     =       42620.19147906 eV    
  Three-body potentials      =         113.00955984 eV    
  Four-body potentials       =           3.42026277 eV    
  Improper torsions          =           0.00000000 eV    
  Out of plane potentials    =           0.00000000 eV    
  Monopole - monopole (real) =           0.00000000 eV    
  Monopole - monopole (recip)=           0.00000000 eV    
  Monopole - monopole (total)=           0.00000000 eV    
--------------------------------------------------------------------------------
  Total lattice energy       =       42736.62130167 eV    
--------------------------------------------------------------------------------
  Total lattice energy       =         4123430.6665 kJ/(mole unit cells)
--------------------------------------------------------------------------------


  Number of variables =      393

  Maximum number of calculations  =           150
  Maximum Hessian update interval =            10
  Maximum step size               =   1.000000000
  Maximum parameter tolerance     =   0.000010000
  Maximum function  tolerance     =   0.000010000
  Maximum gradient  tolerance     =   0.001000000
  Maximum gradient  component     =   0.010000000

  Symmetry not applied to optimisation

  Cell parameters to be optimised using strains

  Conjugate gradient optimiser to be used

  Lower half triangular hessian to be used

  Start of bulk optimisation :

  Cycle:      0 Energy:     42736.621302  Gnorm:  10110.953902  CPU:    0.076
  Cycle:      1 Energy:      4569.071207  Gnorm:    447.753777  CPU:    0.376
  Cycle:      2 Energy:      1527.799881  Gnorm:    152.487346  CPU:    0.559
  Cycle:      3 Energy:      1165.861280  Gnorm:     67.720514  CPU:    0.780
  Cycle:      4 Energy:       603.828099  Gnorm:     39.863500  CPU:    1.054
  Cycle:      5 Energy:       456.785673  Gnorm:     10.411808  CPU:    1.235
  Cycle:      6 Energy:       294.016010  Gnorm:      4.065177  CPU:    1.446
  Cycle:      7 Energy:       260.879498  Gnorm:      4.283403  CPU:    1.625
  Cycle:      8 Energy:       230.844194  Gnorm:      3.284366  CPU:    1.802
  Cycle:      9 Energy:       207.273264  Gnorm:      2.315139  CPU:    1.953
  Cycle:     10 Energy:       192.837559  Gnorm:      1.461926  CPU:    2.100
  Cycle:     11 Energy:       182.888746  Gnorm:      1.606547  CPU:    2.247
  Cycle:     12 Energy:       163.390657  Gnorm:      1.624564  CPU:    2.400
  Cycle:     13 Energy:       151.735830  Gnorm:      1.063615  CPU:    2.526
  Cycle:     14 Energy:       145.723190  Gnorm:      0.871513  CPU:    2.680
  Cycle:     15 Energy:       141.170535  Gnorm:      0.835683  CPU:    2.832
  Cycle:     16 Energy:       136.970402  Gnorm:      0.687837  CPU:    2.988
  Cycle:     17 Energy:       133.503051  Gnorm:      0.624619  CPU:    3.148
  Cycle:     18 Energy:       130.514193  Gnorm:      0.648145  CPU:    3.302
  Cycle:     19 Energy:       127.505707  Gnorm:      0.613168  CPU:    3.461
  Cycle:     20 Energy:       125.836944  Gnorm:      0.489005  CPU:    3.583
  Cycle:     21 Energy:       124.004659  Gnorm:      0.507517  CPU:    3.737
  Cycle:     22 Energy:       122.320319  Gnorm:      0.456776  CPU:    3.868
  Cycle:     23 Energy:       120.536610  Gnorm:      0.506354  CPU:    4.024
  Cycle:     24 Energy:       117.686186  Gnorm:      0.568408  CPU:    4.185
  Cycle:     25 Energy:       115.667308  Gnorm:      0.548678  CPU:    4.314
  Cycle:     26 Energy:       112.929427  Gnorm:      0.643057  CPU:    4.471
  Cycle:     27 Energy:       110.478919  Gnorm:      0.541488  CPU:    4.599
  Cycle:     28 Energy:       108.292238  Gnorm:      0.568443  CPU:    4.761
  Cycle:     29 Energy:       105.447236  Gnorm:      0.562007  CPU:    4.917
  Cycle:     30 Energy:       104.031712  Gnorm:      0.430247  CPU:    5.047
  Cycle:     31 Energy:       102.801770  Gnorm:      0.440151  CPU:    5.209
  Cycle:     32 Energy:       101.307334  Gnorm:      0.458433  CPU:    5.370
  Cycle:     33 Energy:        99.754623  Gnorm:      0.418170  CPU:    5.522
  Cycle:     34 Energy:        98.425720  Gnorm:      0.409737  CPU:    5.683
  Cycle:     35 Energy:        97.067759  Gnorm:      0.388142  CPU:    5.844
  Cycle:     36 Energy:        95.607925  Gnorm:      0.439604  CPU:    6.003
  Cycle:     37 Energy:        94.378150  Gnorm:      0.404752  CPU:    6.130
  Cycle:     38 Energy:        93.161924  Gnorm:      0.375352  CPU:    6.288
  Cycle:     39 Energy:        92.208240  Gnorm:      0.384363  CPU:    6.445
  Cycle:     40 Energy:        91.661614  Gnorm:      0.306265  CPU:    6.572
  Cycle:     41 Energy:        90.925348  Gnorm:      0.295033  CPU:    6.732
  Cycle:     42 Energy:        90.308966  Gnorm:      0.251498  CPU:    6.861
  Cycle:     43 Energy:        89.733290  Gnorm:      0.282552  CPU:    7.020
  Cycle:     44 Energy:        88.937363  Gnorm:      0.319957  CPU:    7.178
  Cycle:     45 Energy:        88.081221  Gnorm:      0.335531  CPU:    7.303
  Cycle:     46 Energy:        86.788027  Gnorm:      0.382115  CPU:    7.462
  Cycle:     47 Energy:        85.796219  Gnorm:      0.341481  CPU:    7.588
  Cycle:     48 Energy:        84.905244  Gnorm:      0.382170  CPU:    7.750
  Cycle:     49 Energy:        83.655147  Gnorm:      0.424815  CPU:    7.914
  Cycle:     50 Energy:        82.940053  Gnorm:      0.299867  CPU:    8.043
  Cycle:     51 Energy:        82.320260  Gnorm:      0.289477  CPU:    8.206
  Cycle:     52 Energy:        81.659772  Gnorm:      0.274782  CPU:    8.367
  Cycle:     53 Energy:        81.135251  Gnorm:      0.230375  CPU:    8.495
  Cycle:     54 Energy:        80.823958  Gnorm:      0.211939  CPU:    8.624
  Cycle:     55 Energy:        80.477553  Gnorm:      0.201794  CPU:    8.757
  Cycle:     56 Energy:        80.125506  Gnorm:      0.212181  CPU:    8.922
  Cycle:     57 Energy:        79.654612  Gnorm:      0.257008  CPU:    9.082
  Cycle:     58 Energy:        79.059974  Gnorm:      0.267301  CPU:    9.206
  Cycle:     59 Energy:        78.557195  Gnorm:      0.246674  CPU:    9.337
  Cycle:     60 Energy:        78.224879  Gnorm:      0.212452  CPU:    9.463
  Cycle:     61 Energy:        77.887121  Gnorm:      0.203989  CPU:    9.623
  Cycle:     62 Energy:        77.616908  Gnorm:      0.176570  CPU:    9.752
  Cycle:     63 Energy:        77.364460  Gnorm:      0.180130  CPU:    9.910
  Cycle:     64 Energy:        77.123015  Gnorm:      0.167767  CPU:   10.064
  Cycle:     65 Energy:        76.891069  Gnorm:      0.173040  CPU:   10.193
  Cycle:     66 Energy:        76.556841  Gnorm:      0.187978  CPU:   10.350
  Cycle:     67 Energy:        76.229903  Gnorm:      0.189937  CPU:   10.473
  Cycle:     68 Energy:        75.894748  Gnorm:      0.206790  CPU:   10.638
  Cycle:     69 Energy:        75.478313  Gnorm:      0.317222  CPU:   10.802
  Cycle:     70 Energy:        75.179204  Gnorm:      0.173557  CPU:   10.934
  Cycle:     71 Energy:        74.927159  Gnorm:      0.164362  CPU:   11.095
  Cycle:     72 Energy:        74.659947  Gnorm:      0.166453  CPU:   11.259
  Cycle:     73 Energy:        74.402134  Gnorm:      0.152071  CPU:   11.420
  Cycle:     74 Energy:        74.207067  Gnorm:      0.152663  CPU:   11.574
  Cycle:     75 Energy:        73.997055  Gnorm:      0.167544  CPU:   11.733
  Cycle:     76 Energy:        73.815670  Gnorm:      0.159065  CPU:   11.864
  Cycle:     77 Energy:        73.602664  Gnorm:      0.156950  CPU:   12.026
  Cycle:     78 Energy:        73.362936  Gnorm:      0.153920  CPU:   12.190
  Cycle:     79 Energy:        73.194826  Gnorm:      0.189301  CPU:   12.319
  Cycle:     80 Energy:        73.054683  Gnorm:      0.137874  CPU:   12.449
  Cycle:     81 Energy:        72.862556  Gnorm:      0.141930  CPU:   12.611
  Cycle:     82 Energy:        72.699129  Gnorm:      0.149190  CPU:   12.745
  Cycle:     83 Energy:        72.546764  Gnorm:      0.148408  CPU:   12.873
  Cycle:     84 Energy:        72.371125  Gnorm:      0.133693  CPU:   13.030
  Cycle:     85 Energy:        72.218946  Gnorm:      0.132783  CPU:   13.191
  Cycle:     86 Energy:        72.028085  Gnorm:      0.148612  CPU:   13.355
  Cycle:     87 Energy:        71.828610  Gnorm:      0.152069  CPU:   13.483
  Cycle:     88 Energy:        71.638779  Gnorm:      0.171246  CPU:   13.644
  Cycle:     89 Energy:        71.397895  Gnorm:      0.219225  CPU:   13.807
  Cycle:     90 Energy:        71.187632  Gnorm:      0.161699  CPU:   13.936
  Cycle:     91 Energy:        71.007533  Gnorm:      0.151106  CPU:   14.100
  Cycle:     92 Energy:        70.798095  Gnorm:      0.155774  CPU:   14.227
  Cycle:     93 Energy:        70.579844  Gnorm:      0.146628  CPU:   14.390
  Cycle:     94 Energy:        70.386632  Gnorm:      0.159985  CPU:   14.553
  Cycle:     95 Energy:        70.151177  Gnorm:      0.180096  CPU:   14.716
  Cycle:     96 Energy:        69.958331  Gnorm:      0.158332  CPU:   14.846
  Cycle:     97 Energy:        69.773037  Gnorm:      0.140720  CPU:   15.015
  Cycle:     98 Energy:        69.593860  Gnorm:      0.139357  CPU:   15.176
  Cycle:     99 Energy:        69.456818  Gnorm:      0.164529  CPU:   15.305
  Cycle:    100 Energy:        69.346721  Gnorm:      0.122767  CPU:   15.434
  Cycle:    101 Energy:        69.196723  Gnorm:      0.127198  CPU:   15.598
  Cycle:    102 Energy:        69.049803  Gnorm:      0.138440  CPU:   15.762
  Cycle:    103 Energy:        68.915086  Gnorm:      0.139493  CPU:   15.891
  Cycle:    104 Energy:        68.775345  Gnorm:      0.118746  CPU:   16.053
  Cycle:    105 Energy:        68.660130  Gnorm:      0.114676  CPU:   16.214
  Cycle:    106 Energy:        68.511783  Gnorm:      0.137909  CPU:   16.374
  Cycle:    107 Energy:        68.329091  Gnorm:      0.143961  CPU:   16.503
  Cycle:    108 Energy:        68.147041  Gnorm:      0.147518  CPU:   16.631
  Cycle:    109 Energy:        67.958509  Gnorm:      0.197448  CPU:   16.791
  Cycle:    110 Energy:        67.805469  Gnorm:      0.130716  CPU:   16.923
  Cycle:    111 Energy:        67.653621  Gnorm:      0.132257  CPU:   17.055
  Cycle:    112 Energy:        67.499264  Gnorm:      0.124053  CPU:   17.220
  Cycle:    113 Energy:        67.380444  Gnorm:      0.102834  CPU:   17.351
  Cycle:    114 Energy:        67.282184  Gnorm:      0.111631  CPU:   17.512
  Cycle:    115 Energy:        67.163292  Gnorm:      0.110386  CPU:   17.675
  Cycle:    116 Energy:        67.085769  Gnorm:      0.095093  CPU:   17.808
  Cycle:    117 Energy:        67.017183  Gnorm:      0.089485  CPU:   17.970
  Cycle:    118 Energy:        66.934829  Gnorm:      0.075996  CPU:   18.127
  Cycle:    119 Energy:        66.766051  Gnorm:      0.174524  CPU:   18.286
  Cycle:    120 Energy:        66.678951  Gnorm:      0.074785  CPU:   18.421
  Cycle:    121 Energy:        66.621101  Gnorm:      0.083008  CPU:   18.586
  Cycle:    122 Energy:        66.566690  Gnorm:      0.073925  CPU:   18.718
  Cycle:    123 Energy:        66.525076  Gnorm:      0.076281  CPU:   18.851
  Cycle:    124 Energy:        66.461490  Gnorm:      0.100072  CPU:   19.014
  Cycle:    125 Energy:        66.401235  Gnorm:      0.069493  CPU:   19.148
  Cycle:    126 Energy:        66.330076  Gnorm:      0.090165  CPU:   19.310
  Cycle:    127 Energy:        66.249116  Gnorm:      0.092386  CPU:   19.443
  Cycle:    128 Energy:        66.182618  Gnorm:      0.099118  CPU:   19.572
  Cycle:    129 Energy:        66.100968  Gnorm:      0.107772  CPU:   19.741
  Cycle:    130 Energy:        66.046746  Gnorm:      0.076077  CPU:   19.874
  Cycle:    131 Energy:        66.011050  Gnorm:      0.067482  CPU:   20.040
  Cycle:    132 Energy:        65.958894  Gnorm:      0.082410  CPU:   20.206
  Cycle:    133 Energy:        65.906860  Gnorm:      0.063920  CPU:   20.334
  Cycle:    134 Energy:        65.863072  Gnorm:      0.073691  CPU:   20.498
  Cycle:    135 Energy:        65.813478  Gnorm:      0.082030  CPU:   20.627
  Cycle:    136 Energy:        65.758512  Gnorm:      0.083262  CPU:   20.755
  Cycle:    137 Energy:        65.695903  Gnorm:      0.078672  CPU:   20.919
  Cycle:    138 Energy:        65.630650  Gnorm:      0.085692  CPU:   21.085
  Cycle:    139 Energy:        65.498177  Gnorm:      0.129826  CPU:   21.248
  Cycle:    140 Energy:        65.416909  Gnorm:      0.091135  CPU:   21.381
  Cycle:    141 Energy:        65.361096  Gnorm:      0.081094  CPU:   21.545
  Cycle:    142 Energy:        65.304848  Gnorm:      0.077128  CPU:   21.712
  Cycle:    143 Energy:        65.260770  Gnorm:      0.071111  CPU:   21.846
  Cycle:    144 Energy:        65.208322  Gnorm:      0.079654  CPU:   22.012
  Cycle:    145 Energy:        65.163937  Gnorm:      0.067494  CPU:   22.146
  Cycle:    146 Energy:        65.132998  Gnorm:      0.060649  CPU:   22.312
  Cycle:    147 Energy:        65.087253  Gnorm:      0.071301  CPU:   22.476
  Cycle:    148 Energy:        65.042073  Gnorm:      0.062913  CPU:   22.606
  Cycle:    149 Energy:        64.997480  Gnorm:      0.074449  CPU:   22.768
  Cycle:    150 Energy:        64.965566  Gnorm:      0.061967  CPU:   22.897


  **** Maximum number of function calls has been reached ****


  Final energy =      64.96556639 eV
  Final Gnorm  =       0.06196731

  Components of energy : 

--------------------------------------------------------------------------------
  Interatomic potentials     =          22.94274443 eV    
  Three-body potentials      =          38.59172186 eV    
  Four-body potentials       =           3.43110010 eV    
  Improper torsions          =           0.00000000 eV    
  Out of plane potentials    =           0.00000000 eV    
  Monopole - monopole (real) =           0.00000000 eV    
  Monopole - monopole (recip)=           0.00000000 eV    
  Monopole - monopole (total)=           0.00000000 eV    
--------------------------------------------------------------------------------
  Total lattice energy       =          64.96556639 eV    
--------------------------------------------------------------------------------
  Total lattice energy       =            6268.1841 kJ/(mole unit cells)
--------------------------------------------------------------------------------

  Final fractional coordinates of atoms :

--------------------------------------------------------------------------------
   No.  Atomic        x           y          z          Radius
        Label       (Frac)      (Frac)     (Frac)       (Angs) 
--------------------------------------------------------------------------------
     1  O3    c     0.269768    0.959838    0.089691    0.000000
     2  O3    c     0.779423    0.431828    0.145624    0.000000
     3  O3    c     0.664840    0.945265    0.129643    0.000000
     4  O3    c     0.167308    0.426455    0.171964    0.000000
     5  O3    c     0.343000    0.965152    0.597454    0.000000
     6  O3    c     0.789746    0.493789    0.657080    0.000000
     7  O3    c     0.648949    0.997283    0.643856    0.000000
     8  O3    c     0.144962    0.484485    0.669815    0.000000
     9  O3    c     0.377873    0.079542    0.195951    0.000000
    10  O3    c     0.920734    0.509601    0.276504    0.000000
    11  O3    c     0.530085    0.015234    0.255004    0.000000
    12  O3    c     0.087663    0.572030    0.241768    0.000000
    13  O3    c     0.376470    0.838573    0.953471    0.000000
    14  O3    c     0.917281    0.396779    0.750587    0.000000
    15  O3    c     0.530448    0.910992    0.903911    0.000000
    16  O3    c     0.086022    0.334820    0.755750    0.000000
    17  O3    c     0.222636    0.089036    0.282336    0.000000
    18  O3    c     0.753115    0.592879    0.215812    0.000000
    19  O3    c     0.689065    0.106069    0.217702    0.000000
    20  O3    c     0.259921    0.576663    0.361327    0.000000
    21  O3    c     0.210964    0.836794    0.851528    0.000000
    22  O3    c     0.732885    0.340493    0.703149    0.000000
    23  O3    c     0.725168    0.843657    0.872821    0.000000
    24  O3    c     0.255218    0.342232    0.758892    0.000000
    25  O3    c     0.074515    0.189350    0.229450    0.000000
    26  O3    c     0.583612    0.688666    0.406282    0.000000
    27  O3    c     0.879014    0.175488    0.234623    0.000000
    28  O3    c     0.375840    0.724779    0.419200    0.000000
    29  O3    c     0.081213    0.703287    0.946000    0.000000
    30  O3    c     0.580607    0.237445    0.732439    0.000000
    31  O3    c     0.880285    0.730702    0.742891    0.000000
    32  O3    c     0.369591    0.193054    0.752171    0.000000
    33  O3    c     0.249683    0.245527    0.153963    0.000000
    34  O3    c     0.691545    0.695254    0.964132    0.000000
    35  O3    c     0.718305    0.253310    0.132854    0.000000
    36  O3    c     0.265691    0.694126    0.000668    0.000000
    37  O3    c     0.187879    0.714267    0.503250    0.000000
    38  O3    c     0.763499    0.195143    0.625542    0.000000
    39  O3    c     0.746149    0.749747    0.453369    0.000000
    40  O3    c     0.183373    0.201197    0.660036    0.000000
    41  O3    c     0.952413    0.242632    0.656467    0.000000
    42  O3    c     0.501433    0.827260    0.516567    0.000000
    43  O3    c     0.934026    0.654934    0.175078    0.000000
    44  O3    c     0.521148    0.158084    0.118085    0.000000
    45  O3    c     0.972672    0.591062    0.684298    0.000000
    46  O3    c     0.495156    0.097835    0.640392    0.000000
    47  O3    c     0.960540    0.313593    0.163469    0.000000
    48  O3    c     0.528345    0.770964    0.036139    0.000000
    49  Si3   c     0.306598    0.019805    0.324782    0.000000
    50  Si3   c     0.807596    0.510429    0.331059    0.000000
    51  Si3   c     0.638512    0.020268    0.321505    0.000000
    52  Si3   c     0.166181    0.511961    0.353440    0.000000
    53  Si3   c     0.304493    0.901929    0.849943    0.000000
    54  Si3   c     0.805860    0.410537    0.824378    0.000000
    55  Si3   c     0.639795    0.915394    0.829738    0.000000
    56  Si3   c     0.162113    0.401021    0.843072    0.000000
    57  Si3   c     0.188109    0.183674    0.335683    0.000000
    58  Si3   c     0.696502    0.679605    0.288526    0.000000
    59  Si3   c     0.761746    0.180843    0.305150    0.000000
    60  Si3   c     0.274255    0.676112    0.324689    0.000000
    61  Si3   c     0.187535    0.738032    0.821992    0.000000
    62  Si3   c     0.697441    0.250960    0.807085    0.000000
    63  Si3   c     0.760295    0.750719    0.777794    0.000000
    64  Si3   c     0.267083    0.244569    0.828062    0.000000
    65  Si3   c     0.970915    0.232017    0.328712    0.000000
    66  Si3   c     0.492666    0.749035    0.340369    0.000000
    67  Si3   c     0.968508    0.671199    0.863990    0.000000
    68  Si3   c     0.488966    0.176410    0.813933    0.000000
    69  Si3   c     0.478034    0.093121    0.317770    0.000000
    70  Si3   c     0.980852    0.585508    0.355706    0.000000
    71  Si3   c     0.481053    0.832428    0.838386    0.000000
    72  Si3   c     0.976884    0.320689    0.838222    0.000000
    73  C3    c     0.338849    0.526369    0.878552    0.000000
    74  C3    c     0.435183    0.554433    0.985391    0.000000
    75  C3    c     0.461838    0.630253    0.864087    0.000000
    76  N3    c     0.457609    0.543911    0.274681    0.000000
    77  C3    c     0.555548    0.526242    0.373353    0.000000
    78  C3    c     0.587904    0.452381    0.535245    0.000000
    79  N3    c     0.520251    0.398688    0.664944    0.000000
    80  C3    c     0.529232    0.383209    0.951079    0.000000
    81  C3    c     0.443562    0.345991    0.087404    0.000000
    82  N3    c     0.460268    0.299808    0.320638    0.000000
    83  H     c     0.341766    0.506963    0.680073    0.000000
    84  H     c     0.282698    0.567741    0.886540    0.000000
    85  H     c     0.317293    0.476407    0.984753    0.000000
    86  H     c     0.483854    0.522591    0.874737    0.000000
    87  H     c     0.418465    0.675401    0.933242    0.000000
    88  H     c     0.446958    0.627317    0.657556    0.000000
    89  H     c     0.536390    0.641370    0.893716    0.000000
    90  H47   c     0.419123    0.496797    0.322055    0.000000
    91  H     c     0.571559    0.568130    0.519456    0.000000
    92  H     c     0.603616    0.535796    0.206723    0.000000
    93  H     c     0.632205    0.473605    0.694158    0.000000
    94  H     c     0.632406    0.415699    0.409772    0.000000
    95  H47   c     0.452207    0.412168    0.628210    0.000000
    96  H     c     0.544506    0.432377    0.048572    0.000000
    97  H     c     0.592198    0.355104    0.999429    0.000000
    98  H     c     0.386096    0.383213    0.140729    0.000000
    99  H     c     0.419468    0.313207    0.928978    0.000000
   100  H47   c     0.410888    0.256783    0.337297    0.000000
   101  H47   c     0.527538    0.279770    0.319473    0.000000
   102  C3    c     0.071661    0.040418    0.528112    0.000000
   103  C3    c     0.067563    0.951545    0.555527    0.000000
   104  C3    c     0.130581    0.894187    0.401390    0.000000
   105  N3    c     0.055221    0.931290    0.837606    0.000000
   106  C3    c     0.997406    0.861506    0.888553    0.000000
   107  C3    c     0.933165    0.846956    0.141013    0.000000
   108  N3    c     0.864379    0.910540    0.174323    0.000000
   109  C3    c     0.826182    0.926514    0.438491    0.000000
   110  C3    c     0.851973    0.007180    0.574000    0.000000
   111  N3    c     0.805746    0.057285    0.771505    0.000000
   112  H     c     0.068697    0.053873    0.317770    0.000000
   113  H     c     0.132367    0.058214    0.643932    0.000000
   114  H     c     0.015220    0.074096    0.619545    0.000000
   115  H     c     0.006318    0.941820    0.448202    0.000000
   116  H     c     0.200572    0.893988    0.451095    0.000000
   117  H     c     0.132941    0.911225    0.208041    0.000000
   118  H     c     0.109340    0.833767    0.393924    0.000000
   119  H47   c     0.037671    0.977402    0.958603    0.000000
   120  H     c     0.032261    0.815839    0.792736    0.000000
   121  H     c     0.945651    0.862464    0.755135    0.000000
   122  H     c     0.969457    0.830263    0.315649    0.000000
   123  H     c     0.888631    0.797006    0.134251    0.000000
   124  H47   c     0.894886    0.961124    0.117597    0.000000
   125  H     c     0.837221    0.877748    0.550951    0.000000
   126  H     c     0.757514    0.909745    0.431999    0.000000
   127  H     c     0.907116    0.987572    0.689366    0.000000
   128  H     c     0.878469    0.047331    0.424476    0.000000
   129  H47   c     0.854337    0.094894    0.852657    0.000000
   130  H47   c     0.783478    0.026567    0.928353    0.000000
--------------------------------------------------------------------------------

  Final Cartesian lattice vectors (Angstroms) :

       14.133780   -0.013675    0.102028
       -0.017340   17.029098    0.004450
        0.038047    0.001309    4.992079


  Final cell parameters and derivatives :

--------------------------------------------------------------------------------
       a           14.134155 Angstrom     dE/de1(xx)    -0.820209 eV/strain
       b           17.029108 Angstrom     dE/de2(yy)    -0.897878 eV/strain
       c            4.992224 Angstrom     dE/de3(zz)     1.094464 eV/strain
       alpha       89.970450 Degrees      dE/de4(yz)     1.057326 eV/strain
       beta        89.149748 Degrees      dE/de5(xz)    -2.990410 eV/strain
       gamma       90.113665 Degrees      dE/de6(xy)     0.364258 eV/strain
--------------------------------------------------------------------------------

  Primitive cell volume =          1201.453788 Angs**3

  Density of cell =      2.394587 g/cm**3

  Non-primitive cell volume =          1201.453788 Angs**3


  Final internal derivatives :

--------------------------------------------------------------------------------
   No.  Atomic          a             b             c           Radius
        Label          (eV)          (eV)          (eV)        (eV/Angs)
--------------------------------------------------------------------------------
      1 O3    c       0.000000      0.000000      0.000000      0.000000
      2 O3    c      -0.387258      0.093689      0.394395      0.000000
      3 O3    c      -0.896822     -0.123750      1.453414      0.000000
      4 O3    c       1.618065     -0.326868     -0.452557      0.000000
      5 O3    c       1.105003     -0.032019     -0.439538      0.000000
      6 O3    c      -0.759763     -0.719213      1.581617      0.000000
      7 O3    c      -0.955828      1.257600      0.231461      0.000000
      8 O3    c       1.757391      0.262405     -0.594044      0.000000
      9 O3    c       0.295398      0.211838     -0.663752      0.000000
     10 O3    c       0.610843      0.118788      0.368870      0.000000
     11 O3    c       0.559010      0.408809     -0.227457      0.000000
     12 O3    c       0.858013      0.713356     -0.421261      0.000000
     13 O3    c       0.114318     -0.202245      0.468065      0.000000
     14 O3    c       0.838480     -0.266996      0.099431      0.000000
     15 O3    c       0.463503      1.568871      0.455660      0.000000
     16 O3    c       1.156542     -2.230208     -0.451059      0.000000
     17 O3    c      -0.448934     -0.004926      1.324632      0.000000
     18 O3    c      -1.750594      0.408236      0.490186      0.000000
     19 O3    c       0.606139     -0.464203      1.040305      0.000000
     20 O3    c       0.050715      2.563783     -0.211531      0.000000
     21 O3    c       1.519719      2.368510     -0.773054      0.000000
     22 O3    c      -2.099729     -0.783024     -0.413724      0.000000
     23 O3    c      -1.163505      2.125563      0.890413      0.000000
     24 O3    c      -2.049740     -0.818192      0.275395      0.000000
     25 O3    c       0.558740      0.274417     -0.890798      0.000000
     26 O3    c       1.664559     -0.019410      0.803535      0.000000
     27 O3    c      -0.048858     -0.990278      0.072035      0.000000
     28 O3    c       0.834273      1.119567      0.878640      0.000000
     29 O3    c       0.324585      1.361399     -0.887040      0.000000
     30 O3    c       1.030880      0.298807     -0.084887      0.000000
     31 O3    c      -1.265051      0.223289     -0.227219      0.000000
     32 O3    c       0.463642     -0.424615     -0.453406      0.000000
     33 O3    c       0.249503     -0.007009     -1.076549      0.000000
     34 O3    c      -1.149132      0.736690      0.967303      0.000000
     35 O3    c       0.268017     -1.123431      0.996581      0.000000
     36 O3    c       0.556217     -0.154014     -1.534020      0.000000
     37 O3    c      -0.437601      1.244243      1.095098      0.000000
     38 O3    c       1.829769      0.005225     -1.622051      0.000000
     39 O3    c      -0.330368      1.290280     -0.144306      0.000000
     40 O3    c      -2.270660     -0.175534      0.051256      0.000000
     41 O3    c      -0.057030     -0.044373     -0.080505      0.000000
     42 O3    c       0.416234     -0.199574      0.653428      0.000000
     43 O3    c      -1.553230     -0.124340      0.084707      0.000000
     44 O3    c      -0.433382      0.428100     -0.135050      0.000000
     45 O3    c       1.358760     -0.797423     -0.245319      0.000000
     46 O3    c       1.834978     -0.265982     -0.537853      0.000000
     47 O3    c      -1.421389     -1.032188     -0.040865      0.000000
     48 O3    c      -0.625389      0.986259     -0.459034      0.000000
     49 Si3   c       0.240487      0.014509     -0.576225      0.000000
     50 Si3   c       0.445477     -1.811940     -0.445743      0.000000
     51 Si3   c       1.007841     -1.382439      0.447577      0.000000
     52 Si3   c      -0.617767      0.001238      0.551667      0.000000
     53 Si3   c      -0.663682     -2.399935      1.636502      0.000000
     54 Si3   c       0.288170      0.890750      0.191394      0.000000
     55 Si3   c       1.266309     -1.767119     -3.043321      0.000000
     56 Si3   c      -1.969741      0.283925      0.353232      0.000000
     57 Si3   c      -0.990191      0.533348      0.838281      0.000000
     58 Si3   c       0.116768     -2.039235      0.628164      0.000000
     59 Si3   c       0.091945      0.750520     -0.090315      0.000000
     60 Si3   c      -0.315935     -2.956508     -0.596073      0.000000
     61 Si3   c       0.654498     -2.201653     -0.998757      0.000000
     62 Si3   c       0.623819      2.721624      1.638445      0.000000
     63 Si3   c      -0.705262     -1.370562      0.673264      0.000000
     64 Si3   c      -1.681741      1.363460     -0.588430      0.000000
     65 Si3   c      -0.068993      1.756455     -0.253828      0.000000
     66 Si3   c      -0.760880     -1.061419     -0.236810      0.000000
     67 Si3   c      -0.881444     -0.721499      1.678562      0.000000
     68 Si3   c      -0.117748      0.743562     -0.200980      0.000000
     69 Si3   c       0.587609      0.920006      0.160085      0.000000
     70 Si3   c      -0.187421     -0.457742     -0.199789      0.000000
     71 Si3   c       0.311244      0.126507      0.355203      0.000000
     72 Si3   c       1.120808      0.535840      0.136662      0.000000
     73 C3    c       0.342458      0.164921     -0.772853      0.000000
     74 C3    c      -0.003866      1.063254     -0.256374      0.000000
     75 C3    c       0.455563      0.580800      0.976658      0.000000
     76 N3    c       0.273035     -1.532881      0.402610      0.000000
     77 C3    c       0.584145     -1.647421     -0.646880      0.000000
     78 C3    c       1.869665      1.584083      0.817670      0.000000
     79 N3    c      -2.140880      0.440547      0.159171      0.000000
     80 C3    c       0.590435      0.915912     -0.511554      0.000000
     81 C3    c      -0.501098     -1.502683     -0.343580      0.000000
     82 N3    c       3.468161      3.837232      0.457920      0.000000
     83 H     c       0.460531      1.973540     -0.281651      0.000000
     84 H     c       0.585463      0.055554      0.938356      0.000000
     85 H     c       0.879100     -1.056964     -1.442219      0.000000
     86 H     c      -0.559255      1.030603      0.397851      0.000000
     87 H     c       0.461654      0.037181      0.410091      0.000000
     88 H     c       0.604035      1.025312     -0.184180      0.000000
     89 H     c       0.384341      0.081009      0.744512      0.000000
     90 H47   c       1.021190      0.252009     -0.522866      0.000000
     91 H     c      -0.702947      0.254653     -0.070509      0.000000
     92 H     c      -0.792489      0.546119      0.065616      0.000000
     93 H     c       1.027064     -0.036685     -0.233605      0.000000
     94 H     c       1.674752      0.029745      0.277570      0.000000
     95 H47   c       3.108625     -0.136837      0.130762      0.000000
     96 H     c      -0.782352      0.532902      0.182889      0.000000
     97 H     c       0.307184     -0.063277     -0.309267      0.000000
     98 H     c      -0.185505     -0.675936      0.022800      0.000000
     99 H     c      -0.154145     -0.234811      0.218195      0.000000
    100 H47   c      -1.248542     -3.696221      0.224338      0.000000
    101 H47   c      -0.210572      0.845342     -0.627673      0.000000
    102 C3    c      -1.244547      4.015659     -1.584986      0.000000
    103 C3    c      -1.331348     -3.325653     -1.169705      0.000000
    104 C3    c      -0.655210      3.525700     -0.015439      0.000000
    105 N3    c       0.002675      0.745161     -0.576127      0.000000
    106 C3    c       1.206908      3.841573     -0.464306      0.000000
    107 C3    c      -0.099767      1.117261     -0.730944      0.000000
    108 N3    c      -0.477405     -3.637131      0.394661      0.000000
    109 C3    c      -0.338960     -2.161714      0.421189      0.000000
    110 C3    c       0.087939      2.397557     -0.470203      0.000000
    111 N3    c      -4.693550     -7.849701      1.691899      0.000000
    112 H     c      -1.959175     -0.178852      0.305573      0.000000
    113 H     c      -1.668907      1.189540      0.380527      0.000000
    114 H     c      -0.544313      0.209037     -1.173295      0.000000
    115 H     c      -2.055495     -0.117865      0.102083      0.000000
    116 H     c      -0.288384      1.374266      1.788399      0.000000
    117 H     c      -0.593341      1.580728      0.126094      0.000000
    118 H     c      -0.284464      0.185639     -1.967671      0.000000
    119 H47   c      -0.828095      0.214388      0.012714      0.000000
    120 H     c       1.765819     -1.465050     -2.530304      0.000000
    121 H     c      -0.413248      0.011866      0.390915      0.000000
    122 H     c      -0.625163      1.977248     -0.139662      0.000000
    123 H     c       0.753556     -0.090044      0.158027      0.000000
    124 H47   c      -1.292191      3.057820      0.774564      0.000000
    125 H     c      -1.973741      0.198268     -1.052683      0.000000
    126 H     c       1.185924      0.347183     -0.484726      0.000000
    127 H     c      -0.630720      0.032331     -0.299781      0.000000
    128 H     c      -0.483476     -1.171825      0.237545      0.000000
    129 H47   c       3.223745      3.422334      1.168072      0.000000
    130 H47   c       0.306475      1.109381      0.090098      0.000000
--------------------------------------------------------------------------------
  Maximum abs         4.693550      7.849701      3.043321      0.000000
--------------------------------------------------------------------------------


  Time to end of optimisation =      22.8976 seconds


  Peak dynamic memory used =       1.00 MB 


  Timing analysis for GULP :

--------------------------------------------------------------------------------
  Task / Subroutine                                          Time (Seconds)
--------------------------------------------------------------------------------
  Calculation of real space energy and derivatives               13.7897
  Calculation of three-body energy and derivatives                4.9043
  Calculation of four-body energy and derivatives                 4.1013
  Calculation of molecules and connectivity                       0.0732
--------------------------------------------------------------------------------
  Total CPU time                                                 22.8976
--------------------------------------------------------------------------------


  Job Finished at 09:49.12 24th April      2020                               

