********************************************************************************
*                       GENERAL UTILITY LATTICE PROGRAM                        *
*                                 Julian Gale                                  *
*                       Curtin Institute for Computation                       *
*                           Department of Chemistry                            *
*                    Curtin University, Western Australia                      *
********************************************************************************
* Version = 5.1.1 * Last modified =  11th April 2019                           *
********************************************************************************
*  single       - perform a single point run                                   *
*  molmec       - molecule option activated, Coulomb subtract 1-2/1-3 terms    *
********************************************************************************
*                                                                              *
********************************************************************************


  Job Started  at 11:56.21 31st March      2020                               

  Number of CPUs =     1


  Total number of configurations input =      1

********************************************************************************
*  Input for Configuration =   1                                               *
********************************************************************************

  Formula = O96Si48                                                     

  Number of irreducible atoms/shells =     144


  Total number atoms/shells =     144

  Dimensionality = 3               :  Bulk   



  Cartesian lattice vectors (Angstroms) :

       16.878371    0.259099    0.303226
        0.293070   18.679548   -0.190254
        0.125890   -0.069832    6.909242

  Cell parameters (Angstroms/Degrees):

  a =      16.8831    alpha =  91.1459
  b =      18.6828    beta  =  87.9362
  c =       6.9107    gamma =  88.2325

  Initial cell volume =        2176.873817 Angs**3

  Temperature of configuration =  0.000     K 

  Pressure of configuration =         0.000 GPa 

  Fractional coordinates of asymmetric unit :

--------------------------------------------------------------------------------
   No.  Atomic       x           y          z         Charge      Occupancy
        Label      (Frac)      (Frac)     (Frac)        (e)         (Frac)  
--------------------------------------------------------------------------------
      1 O3    c    0.776180    0.802371    0.749957     0.00000    1.000000    
      2 O3    c    0.307693    0.327826    0.657846     0.00000    1.000000    
      3 O3    c    0.297331    0.813083    0.744380     0.00000    1.000000    
      4 O3    c    0.773960    0.293106    0.769002     0.00000    1.000000    
      5 O3    c    0.818436    0.787605    0.201445     0.00000    1.000000    
      6 O3    c    0.306126    0.316524    0.269755     0.00000    1.000000    
      7 O3    c    0.265497    0.824763    0.344488     0.00000    1.000000    
      8 O3    c    0.744369    0.291995    0.240876     0.00000    1.000000    
      9 O3    c    0.809899    0.909724    0.013020     0.00000    1.000000    
     10 O3    c    0.396885    0.366406    0.969608     0.00000    1.000000    
     11 O3    c    0.210270    0.855478    0.990078     0.00000    1.000000    
     12 O3    c    0.745271    0.410743    0.024657     0.00000    1.000000    
     13 O3    c    0.843491    0.694985    0.545789     0.00000    1.000000    
     14 O3    c    0.352236    0.202356    0.484498     0.00000    1.000000    
     15 O3    c    0.259144    0.697964    0.529336     0.00000    1.000000    
     16 O3    c    0.650884    0.258851    0.553216     0.00000    1.000000    
     17 O3    c    0.899815    0.899364    0.676807     0.00000    1.000000    
     18 O3    c    0.399072    0.441264    0.648947     0.00000    1.000000    
     19 O3    c    0.158769    0.894093    0.631798     0.00000    1.000000    
     20 O3    c    0.651797    0.383419    0.752533     0.00000    1.000000    
     21 O3    c    0.881630    0.658049    0.225234     0.00000    1.000000    
     22 O3    c    0.425323    0.221555    0.176489     0.00000    1.000000    
     23 O3    c    0.161728    0.730486    0.242178     0.00000    1.000000    
     24 O3    c    0.596142    0.227815    0.232996     0.00000    1.000000    
     25 O3    c    0.216036    0.677163    0.907767     0.00000    1.000000    
     26 O3    c    0.650564    0.250963    0.920769     0.00000    1.000000    
     27 O3    c    0.892444    0.726167    0.908728     0.00000    1.000000    
     28 O3    c    0.418063    0.243788    0.793122     0.00000    1.000000    
     29 O3    c    0.159949    0.937638    0.256574     0.00000    1.000000    
     30 O3    c    0.653348    0.413926    0.342076     0.00000    1.000000    
     31 O3    c    0.900235    0.903843    0.298091     0.00000    1.000000    
     32 O3    c    0.440321    0.363444    0.319830     0.00000    1.000000    
     33 O3    c    0.748524    0.918265    0.677079     0.00000    1.000000    
     34 O3    c    0.275072    0.443246    0.853072     0.00000    1.000000    
     35 O3    c    0.263373    0.964555    0.804916     0.00000    1.000000    
     36 O3    c    0.800012    0.415506    0.662812     0.00000    1.000000    
     37 O3    c    0.728457    0.679007    0.305823     0.00000    1.000000    
     38 O3    c    0.260140    0.197392    0.184922     0.00000    1.000000    
     39 O3    c    0.318409    0.699483    0.173400     0.00000    1.000000    
     40 O3    c    0.716533    0.156341    0.348055     0.00000    1.000000    
     41 O3    c    0.364694    0.687235    0.782825     0.00000    1.000000    
     42 O3    c    0.733676    0.155822    0.700438     0.00000    1.000000    
     43 O3    c    0.762291    0.680177    0.894631     0.00000    1.000000    
     44 O3    c    0.267805    0.209341    0.817065     0.00000    1.000000    
     45 O3    c    0.314513    0.933272    0.142790     0.00000    1.000000    
     46 O3    c    0.820132    0.411814    0.307674     0.00000    1.000000    
     47 O3    c    0.731296    0.910765    0.322681     0.00000    1.000000    
     48 O3    c    0.332788    0.458980    0.222249     0.00000    1.000000    
     49 O3    c    0.800139    0.161721    0.028994     0.00000    1.000000    
     50 O3    c    0.375569    0.572490    0.016173     0.00000    1.000000    
     51 O3    c    0.220421    0.086727    0.961524     0.00000    1.000000    
     52 O3    c    0.665727    0.600563    0.038187     0.00000    1.000000    
     53 O3    c    0.856812    0.533513    0.515503     0.00000    1.000000    
     54 O3    c    0.358014    0.957160    0.487344     0.00000    1.000000    
     55 O3    c    0.216278    0.466060    0.506921     0.00000    1.000000    
     56 O3    c    0.687125    0.030815    0.540304     0.00000    1.000000    
     57 O3    c    0.798871    0.038528    0.823397     0.00000    1.000000    
     58 O3    c    0.304179    0.564344    0.659658     0.00000    1.000000    
     59 O3    c    0.317018    0.083547    0.660904     0.00000    1.000000    
     60 O3    c    0.754694    0.531321    0.821470     0.00000    1.000000    
     61 O3    c    0.798308    0.549066    0.166978     0.00000    1.000000    
     62 O3    c    0.283068    0.062554    0.320714     0.00000    1.000000    
     63 O3    c    0.261019    0.577813    0.298784     0.00000    1.000000    
     64 O3    c    0.782604    0.038284    0.216830     0.00000    1.000000    
     65 O3    c    0.887155    0.144690    0.703023     0.00000    1.000000    
     66 O3    c    0.450685    0.573673    0.698739     0.00000    1.000000    
     67 O3    c    0.168395    0.152125    0.625503     0.00000    1.000000    
     68 O3    c    0.654079    0.634714    0.674487     0.00000    1.000000    
     69 O3    c    0.937121    0.499431    0.212240     0.00000    1.000000    
     70 O3    c    0.431170    0.018153    0.206142     0.00000    1.000000    
     71 O3    c    0.177791    0.471798    0.144991     0.00000    1.000000    
     72 O3    c    0.620386    0.009594    0.238111     0.00000    1.000000    
     73 O3    c    0.169783    0.549012    0.810086     0.00000    1.000000    
     74 O3    c    0.661406    0.979233    0.899405     0.00000    1.000000    
     75 O3    c    0.905243    0.467332    0.845020     0.00000    1.000000    
     76 O3    c    0.409094    0.980997    0.832240     0.00000    1.000000    
     77 O3    c    0.145461    0.113462    0.265491     0.00000    1.000000    
     78 O3    c    0.685383    0.546722    0.385365     0.00000    1.000000    
     79 O3    c    0.877617    0.145702    0.336744     0.00000    1.000000    
     80 O3    c    0.407110    0.630068    0.361648     0.00000    1.000000    
     81 O3    c    0.529293    0.184198    0.882453     0.00000    1.000000    
     82 O3    c    0.036853    0.692789    0.023735     0.00000    1.000000    
     83 O3    c    0.537422    0.385441    0.576121     0.00000    1.000000    
     84 O3    c    0.023044    0.973586    0.474604     0.00000    1.000000    
     85 O3    c    0.650174    0.115586    0.008282     0.00000    1.000000    
     86 O3    c    0.119991    0.599065    0.160494     0.00000    1.000000    
     87 O3    c    0.399350    0.114818    0.943230     0.00000    1.000000    
     88 O3    c    0.931994    0.594194    0.906188     0.00000    1.000000    
     89 O3    c    0.601887    0.503351    0.663239     0.00000    1.000000    
     90 O3    c    0.149837    0.025007    0.562373     0.00000    1.000000    
     91 O3    c    0.475892    0.494709    0.358068     0.00000    1.000000    
     92 O3    c    0.882835    0.025355    0.507577     0.00000    1.000000    
     93 O3    c    0.532566    0.034809    0.900260     0.00000    1.000000    
     94 O3    c    0.048812    0.496184    0.935464     0.00000    1.000000    
     95 O3    c    0.547558    0.608192    0.429063     0.00000    1.000000    
     96 O3    c    0.019216    0.125074    0.528240     0.00000    1.000000    
     97 Si3   c    0.815784    0.878771    0.788407     0.00000    1.000000    
     98 Si3   c    0.346954    0.390378    0.782909     0.00000    1.000000    
     99 Si3   c    0.236344    0.884083    0.775026     0.00000    1.000000    
    100 Si3   c    0.742412    0.374719    0.809329     0.00000    1.000000    
    101 Si3   c    0.813978    0.713157    0.328098     0.00000    1.000000    
    102 Si3   c    0.337026    0.233489    0.273679     0.00000    1.000000    
    103 Si3   c    0.252541    0.738565    0.318780     0.00000    1.000000    
    104 Si3   c    0.680775    0.237078    0.336796     0.00000    1.000000    
    105 Si3   c    0.279010    0.724858    0.751697     0.00000    1.000000    
    106 Si3   c    0.705238    0.237480    0.730710     0.00000    1.000000    
    107 Si3   c    0.819176    0.724997    0.761694     0.00000    1.000000    
    108 Si3   c    0.335353    0.245738    0.686561     0.00000    1.000000    
    109 Si3   c    0.237882    0.887398    0.195230     0.00000    1.000000    
    110 Si3   c    0.735900    0.379446    0.240847     0.00000    1.000000    
    111 Si3   c    0.814414    0.875354    0.228308     0.00000    1.000000    
    112 Si3   c    0.363745    0.377083    0.192596     0.00000    1.000000    
    113 Si3   c    0.805501    0.123675    0.815173     0.00000    1.000000    
    114 Si3   c    0.367343    0.600752    0.797762     0.00000    1.000000    
    115 Si3   c    0.242420    0.129100    0.764180     0.00000    1.000000    
    116 Si3   c    0.715269    0.611298    0.835654     0.00000    1.000000    
    117 Si3   c    0.847355    0.495996    0.303435     0.00000    1.000000    
    118 Si3   c    0.344036    0.995499    0.282573     0.00000    1.000000    
    119 Si3   c    0.247350    0.492473    0.293687     0.00000    1.000000    
    120 Si3   c    0.709224    0.997498    0.324464     0.00000    1.000000    
    121 Si3   c    0.242511    0.503343    0.709648     0.00000    1.000000    
    122 Si3   c    0.724576    0.998486    0.732648     0.00000    1.000000    
    123 Si3   c    0.831261    0.493511    0.712197     0.00000    1.000000    
    124 Si3   c    0.336407    0.998491    0.691643     0.00000    1.000000    
    125 Si3   c    0.236142    0.114439    0.180046     0.00000    1.000000    
    126 Si3   c    0.720181    0.596953    0.227864     0.00000    1.000000    
    127 Si3   c    0.795133    0.123665    0.237168     0.00000    1.000000    
    128 Si3   c    0.339484    0.615379    0.207355     0.00000    1.000000    
    129 Si3   c    0.601777    0.190140    0.020908     0.00000    1.000000    
    130 Si3   c    0.134804    0.675954    0.070837     0.00000    1.000000    
    131 Si3   c    0.440080    0.189628    0.961421     0.00000    1.000000    
    132 Si3   c    0.939297    0.664775    0.031730     0.00000    1.000000    
    133 Si3   c    0.619999    0.424397    0.569368     0.00000    1.000000    
    134 Si3   c    0.123010    0.951986    0.473521     0.00000    1.000000    
    135 Si3   c    0.462784    0.422123    0.478351     0.00000    1.000000    
    136 Si3   c    0.925659    0.949041    0.490701     0.00000    1.000000    
    137 Si3   c    0.611794    0.039228    0.022061     0.00000    1.000000    
    138 Si3   c    0.129228    0.530129    0.017741     0.00000    1.000000    
    139 Si3   c    0.442509    0.039658    0.982095     0.00000    1.000000    
    140 Si3   c    0.956173    0.517594    0.985598     0.00000    1.000000    
    141 Si3   c    0.620438    0.573015    0.539746     0.00000    1.000000    
    142 Si3   c    0.116859    0.100553    0.488004     0.00000    1.000000    
    143 Si3   c    0.463922    0.572526    0.464472     0.00000    1.000000    
    144 Si3   c    0.921940    0.103619    0.507993     0.00000    1.000000    
--------------------------------------------------------------------------------



  Molecule list generated from bond lengths :

  Total number of molecules =     1

--------------------------------------------------------------------------------
Molecule No./:  Atoms
Periodicity  :  
--------------------------------------------------------------------------------
     1  3    : O3   c     1 O3   c     2 O3   c     3 O3   c     4 O3   c     5
             : O3   c     6 O3   c     7 O3   c     8 O3   c     9 O3   c    10
             : O3   c    11 O3   c    12 O3   c    13 O3   c    14 O3   c    15
             : O3   c    16 O3   c    17 O3   c    18 O3   c    19 O3   c    20
             : O3   c    21 O3   c    22 O3   c    23 O3   c    24 O3   c    25
             : O3   c    26 O3   c    27 O3   c    28 O3   c    29 O3   c    30
             : O3   c    31 O3   c    32 O3   c    33 O3   c    34 O3   c    35
             : O3   c    36 O3   c    37 O3   c    38 O3   c    39 O3   c    40
             : O3   c    41 O3   c    42 O3   c    43 O3   c    44 O3   c    45
             : O3   c    46 O3   c    47 O3   c    48 O3   c    49 O3   c    50
             : O3   c    51 O3   c    52 O3   c    53 O3   c    54 O3   c    55
             : O3   c    56 O3   c    57 O3   c    58 O3   c    59 O3   c    60
             : O3   c    61 O3   c    62 O3   c    63 O3   c    64 O3   c    65
             : O3   c    66 O3   c    67 O3   c    68 O3   c    69 O3   c    70
             : O3   c    71 O3   c    72 O3   c    73 O3   c    74 O3   c    75
             : O3   c    76 O3   c    77 O3   c    78 O3   c    79 O3   c    80
             : O3   c    81 O3   c    82 O3   c    83 O3   c    84 O3   c    85
             : O3   c    86 O3   c    87 O3   c    88 O3   c    89 O3   c    90
             : O3   c    91 O3   c    92 O3   c    93 O3   c    94 O3   c    95
             : O3   c    96 Si3  c    97 Si3  c    98 Si3  c    99 Si3  c   100
             : Si3  c   101 Si3  c   102 Si3  c   103 Si3  c   104 Si3  c   105
             : Si3  c   106 Si3  c   107 Si3  c   108 Si3  c   109 Si3  c   110
             : Si3  c   111 Si3  c   112 Si3  c   113 Si3  c   114 Si3  c   115
             : Si3  c   116 Si3  c   117 Si3  c   118 Si3  c   119 Si3  c   120
             : Si3  c   121 Si3  c   122 Si3  c   123 Si3  c   124 Si3  c   125
             : Si3  c   126 Si3  c   127 Si3  c   128 Si3  c   129 Si3  c   130
             : Si3  c   131 Si3  c   132 Si3  c   133 Si3  c   134 Si3  c   135
             : Si3  c   136 Si3  c   137 Si3  c   138 Si3  c   139 Si3  c   140
             : Si3  c   141 Si3  c   142 Si3  c   143 Si3  c   144
--------------------------------------------------------------------------------


********************************************************************************
*  General input information                                                   *
********************************************************************************

  Species output for all configurations : 

--------------------------------------------------------------------------------
  Species    Type    Atomic    Atomic    Charge       Radii (Angs)     Library
                     Number     Mass       (e)     Cova   Ionic  VDW   Symbol
--------------------------------------------------------------------------------
    H        Core        1       1.01   0.000000   0.420  0.000  0.000          
    C3       Core        6      12.01   0.000000   0.770  0.000  0.000          
    C2       Core        6      12.01   0.000000   0.770  0.000  0.000          
    N3       Core        7      14.01   0.000000   0.702  0.000  0.000          
    O3       Core        8      16.00   0.000000   0.800  0.000  1.360          
    Si3      Core       14      28.09   0.000000   0.937  0.000  2.100          
--------------------------------------------------------------------------------


  Lattice summation method               =    Ewald          (3-D)
                                         =    Parry          (2-D)
                                         =    Saunders et al (1-D)
  Accuracy factor for lattice sums       =   12.000


  Time limit = Infinity

  Maximum range for interatomic potentials =    100000.000000 Angstroms

  General interatomic potentials :

--------------------------------------------------------------------------------
Atom  Types   Potential      Parameter       Value         Units   Cutoffs(Ang)
  1     2                                                            Min /  Max 
--------------------------------------------------------------------------------
H    c H    c Lenn/es       Lennard epsilon 0.65913937E-03eV        3Bond 12.500
                            Lennard sigma/m  3.1950000    Ang       
                            Exponent m        12          None
                            Exponent n         6          None
--------------------------------------------------------------------------------
H    c C3   c Lenn/es       Lennard epsilon 0.16487155E-02eV        3Bond 12.500
                            Lennard sigma/m  3.5466500    Ang       
                            Exponent m        12          None
                            Exponent n         6          None
--------------------------------------------------------------------------------
C3   c C3   c Lenn/es       Lennard epsilon 0.41239575E-02eV        3Bond 12.500
                            Lennard sigma/m  3.8983000    Ang       
                            Exponent m        12          None
                            Exponent n         6          None
--------------------------------------------------------------------------------
H    c C2   c Lenn/es       Lennard epsilon 0.16487155E-02eV        3Bond 12.500
                            Lennard sigma/m  3.5466500    Ang       
                            Exponent m        12          None
                            Exponent n         6          None
--------------------------------------------------------------------------------
C2   c C3   c Lenn/es       Lennard epsilon 0.41239575E-02eV        3Bond 12.500
                            Lennard sigma/m  3.8983000    Ang       
                            Exponent m        12          None
                            Exponent n         6          None
--------------------------------------------------------------------------------
C2   c C2   c Lenn/es       Lennard epsilon 0.41239575E-02eV        3Bond 12.500
                            Lennard sigma/m  3.8983000    Ang       
                            Exponent m        12          None
                            Exponent n         6          None
--------------------------------------------------------------------------------
H    c N3   c Lenn/es       Lennard epsilon 0.14873937E-02eV        3Bond 12.500
                            Lennard sigma/m  3.4285500    Ang       
                            Exponent m        12          None
                            Exponent n         6          None
--------------------------------------------------------------------------------
C3   c N3   c Lenn/es       Lennard epsilon 0.37204408E-02eV        3Bond 12.500
                            Lennard sigma/m  3.7802000    Ang       
                            Exponent m        12          None
                            Exponent n         6          None
--------------------------------------------------------------------------------
C2   c N3   c Lenn/es       Lennard epsilon 0.37204408E-02eV        3Bond 12.500
                            Lennard sigma/m  3.7802000    Ang       
                            Exponent m        12          None
                            Exponent n         6          None
--------------------------------------------------------------------------------
N3   c N3   c Lenn/es       Lennard epsilon 0.33564070E-02eV        3Bond 12.500
                            Lennard sigma/m  3.6621000    Ang       
                            Exponent m        12          None
                            Exponent n         6          None
--------------------------------------------------------------------------------
H    c O3   c Lenn/es       Lennard epsilon 0.16539083E-02eV        3Bond 12.500
                            Lennard sigma/m  3.2998000    Ang       
                            Exponent m        12          None
                            Exponent n         6          None
--------------------------------------------------------------------------------
C3   c O3   c Lenn/es       Lennard epsilon 0.41369464E-02eV        3Bond 12.500
                            Lennard sigma/m  3.6514500    Ang       
                            Exponent m        12          None
                            Exponent n         6          None
--------------------------------------------------------------------------------
C2   c O3   c Lenn/es       Lennard epsilon 0.41369464E-02eV        3Bond 12.500
                            Lennard sigma/m  3.6514500    Ang       
                            Exponent m        12          None
                            Exponent n         6          None
--------------------------------------------------------------------------------
N3   c O3   c Lenn/es       Lennard epsilon 0.37321588E-02eV        3Bond 12.500
                            Lennard sigma/m  3.5333500    Ang       
                            Exponent m        12          None
                            Exponent n         6          None
--------------------------------------------------------------------------------
O3   c O3   c Lenn/es       Lennard epsilon 0.41499761E-02eV        3Bond 12.500
                            Lennard sigma/m  3.4046000    Ang       
                            Exponent m        12          None
                            Exponent n         6          None
--------------------------------------------------------------------------------
H    c Si3  c Lenn/es       Lennard epsilon 0.29767085E-02eV        3Bond 12.500
                            Lennard sigma/m  3.7325000    Ang       
                            Exponent m        12          None
                            Exponent n         6          None
--------------------------------------------------------------------------------
C3   c Si3  c Lenn/es       Lennard epsilon 0.74456869E-02eV        3Bond 12.500
                            Lennard sigma/m  4.0841500    Ang       
                            Exponent m        12          None
                            Exponent n         6          None
--------------------------------------------------------------------------------
C2   c Si3  c Lenn/es       Lennard epsilon 0.74456869E-02eV        3Bond 12.500
                            Lennard sigma/m  4.0841500    Ang       
                            Exponent m        12          None
                            Exponent n         6          None
--------------------------------------------------------------------------------
N3   c Si3  c Lenn/es       Lennard epsilon 0.67171491E-02eV        3Bond 12.500
                            Lennard sigma/m  3.9660500    Ang       
                            Exponent m        12          None
                            Exponent n         6          None
--------------------------------------------------------------------------------
O3   c Si3  c Lenn/es       Lennard epsilon 0.74691379E-02eV        3Bond 12.500
                            Lennard sigma/m  3.8373000    Ang       
                            Exponent m        12          None
                            Exponent n         6          None
--------------------------------------------------------------------------------
Si3  c Si3  c Lenn/es       Lennard epsilon 0.13442974E-01eV        3Bond 12.500
                            Lennard sigma/m  4.2700000    Ang       
                            Exponent m        12          None
                            Exponent n         6          None
--------------------------------------------------------------------------------

  Intramolecular potentials :

--------------------------------------------------------------------------------
Atom  Types   Potential      Parameter       Value         Units   Cutoffs(Ang)
  1     2                                                            Min /  Max 
--------------------------------------------------------------------------------
H    c H    c Harmonic      Harmonic k2      30.355102    eV*Ang^-2 0.000 1 Bond
                            Harmonic r0     0.65000000    Ang       
                            Harmonic k3      0.0000000    eV*Ang^-3 
                            Harmonic k4      0.0000000    eV*Ang^-4 
--------------------------------------------------------------------------------
H    c C3   c Harmonic      Harmonic k2      30.355102    eV*Ang^-2 0.000 1 Bond
                            Harmonic r0      1.0900000    Ang       
                            Harmonic k3      0.0000000    eV*Ang^-3 
                            Harmonic k4      0.0000000    eV*Ang^-4 
--------------------------------------------------------------------------------
C3   c C3   c Harmonic      Harmonic k2      30.355102    eV*Ang^-2 0.000 1 Bond
                            Harmonic r0      1.5300000    Ang       
                            Harmonic k3      0.0000000    eV*Ang^-3 
                            Harmonic k4      0.0000000    eV*Ang^-4 
--------------------------------------------------------------------------------
H    c C2   c Harmonic      Harmonic k2      30.355102    eV*Ang^-2 0.000 1 Bond
                            Harmonic r0     0.99000000    Ang       
                            Harmonic k3      0.0000000    eV*Ang^-3 
                            Harmonic k4      0.0000000    eV*Ang^-4 
--------------------------------------------------------------------------------
C2   c C3   c Harmonic      Harmonic k2      30.355102    eV*Ang^-2 0.000 1 Bond
                            Harmonic r0      1.4300000    Ang       
                            Harmonic k3      0.0000000    eV*Ang^-3 
                            Harmonic k4      0.0000000    eV*Ang^-4 
--------------------------------------------------------------------------------
C2   c C2   c Harmonic      Harmonic k2      60.710205    eV*Ang^-2 0.000 1 Bond
                            Harmonic r0      1.3300000    Ang       
                            Harmonic k3      0.0000000    eV*Ang^-3 
                            Harmonic k4      0.0000000    eV*Ang^-4 
--------------------------------------------------------------------------------
H    c N3   c Harmonic      Harmonic k2      30.355102    eV*Ang^-2 0.000 1 Bond
                            Harmonic r0      1.0220000    Ang       
                            Harmonic k3      0.0000000    eV*Ang^-3 
                            Harmonic k4      0.0000000    eV*Ang^-4 
--------------------------------------------------------------------------------
C3   c N3   c Harmonic      Harmonic k2      30.355102    eV*Ang^-2 0.000 1 Bond
                            Harmonic r0      1.4620000    Ang       
                            Harmonic k3      0.0000000    eV*Ang^-3 
                            Harmonic k4      0.0000000    eV*Ang^-4 
--------------------------------------------------------------------------------
C2   c N3   c Harmonic      Harmonic k2      30.355102    eV*Ang^-2 0.000 1 Bond
                            Harmonic r0      1.3620000    Ang       
                            Harmonic k3      0.0000000    eV*Ang^-3 
                            Harmonic k4      0.0000000    eV*Ang^-4 
--------------------------------------------------------------------------------
N3   c N3   c Harmonic      Harmonic k2      30.355102    eV*Ang^-2 0.000 1 Bond
                            Harmonic r0      1.3940000    Ang       
                            Harmonic k3      0.0000000    eV*Ang^-3 
                            Harmonic k4      0.0000000    eV*Ang^-4 
--------------------------------------------------------------------------------
H    c O3   c Harmonic      Harmonic k2      30.355102    eV*Ang^-2 0.000 1 Bond
                            Harmonic r0     0.98000000    Ang       
                            Harmonic k3      0.0000000    eV*Ang^-3 
                            Harmonic k4      0.0000000    eV*Ang^-4 
--------------------------------------------------------------------------------
C3   c O3   c Harmonic      Harmonic k2      30.355102    eV*Ang^-2 0.000 1 Bond
                            Harmonic r0      1.4200000    Ang       
                            Harmonic k3      0.0000000    eV*Ang^-3 
                            Harmonic k4      0.0000000    eV*Ang^-4 
--------------------------------------------------------------------------------
C2   c O3   c Harmonic      Harmonic k2      30.355102    eV*Ang^-2 0.000 1 Bond
                            Harmonic r0      1.3200000    Ang       
                            Harmonic k3      0.0000000    eV*Ang^-3 
                            Harmonic k4      0.0000000    eV*Ang^-4 
--------------------------------------------------------------------------------
N3   c O3   c Harmonic      Harmonic k2      30.355102    eV*Ang^-2 0.000 1 Bond
                            Harmonic r0      1.3520000    Ang       
                            Harmonic k3      0.0000000    eV*Ang^-3 
                            Harmonic k4      0.0000000    eV*Ang^-4 
--------------------------------------------------------------------------------
O3   c O3   c Harmonic      Harmonic k2      30.355102    eV*Ang^-2 0.000 1 Bond
                            Harmonic r0      1.3100000    Ang       
                            Harmonic k3      0.0000000    eV*Ang^-3 
                            Harmonic k4      0.0000000    eV*Ang^-4 
--------------------------------------------------------------------------------
H    c Si3  c Harmonic      Harmonic k2      30.355102    eV*Ang^-2 0.000 1 Bond
                            Harmonic r0      1.2570000    Ang       
                            Harmonic k3      0.0000000    eV*Ang^-3 
                            Harmonic k4      0.0000000    eV*Ang^-4 
--------------------------------------------------------------------------------
C3   c Si3  c Harmonic      Harmonic k2      30.355102    eV*Ang^-2 0.000 1 Bond
                            Harmonic r0      1.6970000    Ang       
                            Harmonic k3      0.0000000    eV*Ang^-3 
                            Harmonic k4      0.0000000    eV*Ang^-4 
--------------------------------------------------------------------------------
C2   c Si3  c Harmonic      Harmonic k2      30.355102    eV*Ang^-2 0.000 1 Bond
                            Harmonic r0      1.5970000    Ang       
                            Harmonic k3      0.0000000    eV*Ang^-3 
                            Harmonic k4      0.0000000    eV*Ang^-4 
--------------------------------------------------------------------------------
N3   c Si3  c Harmonic      Harmonic k2      30.355102    eV*Ang^-2 0.000 1 Bond
                            Harmonic r0      1.6290000    Ang       
                            Harmonic k3      0.0000000    eV*Ang^-3 
                            Harmonic k4      0.0000000    eV*Ang^-4 
--------------------------------------------------------------------------------
O3   c Si3  c Harmonic      Harmonic k2      30.355102    eV*Ang^-2 0.000 1 Bond
                            Harmonic r0      1.5870000    Ang       
                            Harmonic k3      0.0000000    eV*Ang^-3 
                            Harmonic k4      0.0000000    eV*Ang^-4 
--------------------------------------------------------------------------------
Si3  c Si3  c Harmonic      Harmonic k2      30.355102    eV*Ang^-2 0.000 1 Bond
                            Harmonic r0      1.8640000    Ang       
                            Harmonic k3      0.0000000    eV*Ang^-3 
                            Harmonic k4      0.0000000    eV*Ang^-4 
--------------------------------------------------------------------------------

  General Three-body potentials :

--------------------------------------------------------------------------------
  Atoms       Potential      Parameter       Value         Units   Cutoffs(Ang)
  1 / 2 / 3                                                          Min /  Max 
--------------------------------------------------------------------------------
H     core    Hydrogen bond Three-body A     162239.27    eV*Ang^m  0.000  3.000
N3    core                  Three-body B     25743.752    eV*Ang^n  0.000  3.000
N3    core                                                          0.000  5.000
--------------------------------------------------------------------------------
H     core    Hydrogen bond Three-body A     162239.27    eV*Ang^m  0.000  3.000
N3    core                  Three-body B     25743.752    eV*Ang^n  0.000  3.000
O3    core                                                          0.000  5.000
--------------------------------------------------------------------------------
H     core    Hydrogen bond Three-body A     162239.27    eV*Ang^m  0.000  3.000
O3    core                  Three-body B     25743.752    eV*Ang^n  0.000  3.000
O3    core                                                          0.000  5.000
--------------------------------------------------------------------------------

  Intramolecular Three-body potentials :

--------------------------------------------------------------------------------
  Atoms       Potential      Parameter       Value         Units   Cutoffs(Ang)
  1 / 2 / 3                                                          Min /  Max 
--------------------------------------------------------------------------------
C3    core    Harmonic      Three-body cnst  4.3364432    eV*rad^-2 0.000 1 Bond
X     core                  Three-body angl  109.47100    degrees   0.000 1 Bond
X     core                  Three-body k4    0.0000000    eV*rad^-4 0.000 1 Bond
                            Three-body k3    0.0000000    eV*rad^-3 
--------------------------------------------------------------------------------
C2    core    Harmonic      Three-body cnst  4.3364432    eV*rad^-2 0.000 1 Bond
X     core                  Three-body angl  120.00000    degrees   0.000 1 Bond
X     core                  Three-body k4    0.0000000    eV*rad^-4 0.000 1 Bond
                            Three-body k3    0.0000000    eV*rad^-3 
--------------------------------------------------------------------------------
N3    core    Harmonic      Three-body cnst  4.3364432    eV*rad^-2 0.000 1 Bond
X     core                  Three-body angl  106.70000    degrees   0.000 1 Bond
X     core                  Three-body k4    0.0000000    eV*rad^-4 0.000 1 Bond
                            Three-body k3    0.0000000    eV*rad^-3 
--------------------------------------------------------------------------------
O3    core    Harmonic      Three-body cnst  4.3364432    eV*rad^-2 0.000 1 Bond
X     core                  Three-body angl  104.51000    degrees   0.000 1 Bond
X     core                  Three-body k4    0.0000000    eV*rad^-4 0.000 1 Bond
                            Three-body k3    0.0000000    eV*rad^-3 
--------------------------------------------------------------------------------
Si3   core    Harmonic      Three-body cnst  4.3364432    eV*rad^-2 0.000 1 Bond
X     core                  Three-body angl  109.47100    degrees   0.000 1 Bond
X     core                  Three-body k4    0.0000000    eV*rad^-4 0.000 1 Bond
                            Three-body k3    0.0000000    eV*rad^-3 
--------------------------------------------------------------------------------

  Intramolecular Four-body potentials :

--------------------------------------------------------------------------------
  Atoms       Potential      Parameter       Value         Units   Cutoffs(Ang)
  1 - 4                                                             Min /  Max 
--------------------------------------------------------------------------------
X     core    Standard      Torsional const 0.43364432E-01eV         Bonded
C3    core Phase = -  3                                              single   
C3    core                                                              
X     core
--------------------------------------------------------------------------------
C3    core    Standard      Torsional const 0.43364432E-01eV         Bonded
C2    core Phase = -  3                                              single   
C3    core                                                              
X     core
--------------------------------------------------------------------------------
C2    core    Standard      Torsional const 0.21682216E-01eV         Bonded
C2    core Phase = -  6                                              single   
C3    core                                                              
X     core
--------------------------------------------------------------------------------
N3    core    Standard      Torsional const 0.43364432E-01eV         Bonded
C2    core Phase = -  3                                              single   
C3    core                                                              
X     core
--------------------------------------------------------------------------------
O3    core    Standard      Torsional const 0.43364432E-01eV         Bonded
C2    core Phase = -  3                                              single   
C3    core                                                              
X     core
--------------------------------------------------------------------------------
Si3   core    Standard      Torsional const 0.43364432E-01eV         Bonded
C2    core Phase = -  3                                              single   
C3    core                                                              
X     core
--------------------------------------------------------------------------------
H     core    Standard      Torsional const 0.43364432E-01eV         Bonded
C2    core Phase = -  3                                              single   
C3    core                                                              
X     core
--------------------------------------------------------------------------------
X     core    Standard      Torsional const 0.10841108    eV         Bonded
C2    core Phase = -  2                                              single   
C2    core                                                              
X     core
--------------------------------------------------------------------------------
X     core    Standard      Torsional const 0.43364432E-01eV         Bonded
N3    core Phase = -  3                                              single   
C3    core                                                              
X     core
--------------------------------------------------------------------------------
C3    core    Standard      Torsional const 0.43364432E-01eV         Bonded
C2    core Phase = -  3                                              single   
N3    core                                                              
X     core
--------------------------------------------------------------------------------
C2    core    Standard      Torsional const 0.21682216E-01eV         Bonded
C2    core Phase = -  6                                              single   
N3    core                                                              
X     core
--------------------------------------------------------------------------------
N3    core    Standard      Torsional const 0.43364432E-01eV         Bonded
C2    core Phase = -  3                                              single   
N3    core                                                              
X     core
--------------------------------------------------------------------------------
O3    core    Standard      Torsional const 0.43364432E-01eV         Bonded
C2    core Phase = -  3                                              single   
N3    core                                                              
X     core
--------------------------------------------------------------------------------
Si3   core    Standard      Torsional const 0.43364432E-01eV         Bonded
C2    core Phase = -  3                                              single   
N3    core                                                              
X     core
--------------------------------------------------------------------------------
H     core    Standard      Torsional const 0.43364432E-01eV         Bonded
C2    core Phase = -  3                                              single   
N3    core                                                              
X     core
--------------------------------------------------------------------------------
X     core    Standard      Torsional const 0.43364432E-01eV         Bonded
N3    core Phase = -  3                                              single   
N3    core                                                              
X     core
--------------------------------------------------------------------------------
X     core    Standard      Torsional const 0.43364432E-01eV         Bonded
O3    core Phase = -  3                                              single   
C3    core                                                              
X     core
--------------------------------------------------------------------------------
X     core    Standard      Torsional const 0.43364432E-01eV         Bonded
O3    core Phase = -  2                                              single   
C2    core                                                              
X     core
--------------------------------------------------------------------------------
X     core    Standard      Torsional const 0.43364432E-01eV         Bonded
O3    core Phase = -  3                                              single   
N3    core                                                              
X     core
--------------------------------------------------------------------------------
X     core    Standard      Torsional const 0.43364432E-01eV         Bonded
O3    core Phase = -  2                                              single   
O3    core                                                              
X     core
--------------------------------------------------------------------------------
X     core    Standard      Torsional const 0.43364432E-01eV         Bonded
Si3   core Phase = -  3                                              single   
C3    core                                                              
X     core
--------------------------------------------------------------------------------
C3    core    Standard      Torsional const 0.43364432E-01eV         Bonded
C2    core Phase = -  3                                              single   
Si3   core                                                              
X     core
--------------------------------------------------------------------------------
C2    core    Standard      Torsional const 0.21682216E-01eV         Bonded
C2    core Phase = -  6                                              single   
Si3   core                                                              
X     core
--------------------------------------------------------------------------------
N3    core    Standard      Torsional const 0.43364432E-01eV         Bonded
C2    core Phase = -  3                                              single   
Si3   core                                                              
X     core
--------------------------------------------------------------------------------
O3    core    Standard      Torsional const 0.43364432E-01eV         Bonded
C2    core Phase = -  3                                              single   
Si3   core                                                              
X     core
--------------------------------------------------------------------------------
Si3   core    Standard      Torsional const 0.43364432E-01eV         Bonded
C2    core Phase = -  3                                              single   
Si3   core                                                              
X     core
--------------------------------------------------------------------------------
H     core    Standard      Torsional const 0.43364432E-01eV         Bonded
C2    core Phase = -  3                                              single   
Si3   core                                                              
X     core
--------------------------------------------------------------------------------
X     core    Standard      Torsional const 0.43364432E-01eV         Bonded
Si3   core Phase = -  3                                              single   
N3    core                                                              
X     core
--------------------------------------------------------------------------------
X     core    Standard      Torsional const 0.43364432E-01eV         Bonded
Si3   core Phase = -  3                                              single   
O3    core                                                              
X     core
--------------------------------------------------------------------------------
X     core    Standard      Torsional const 0.43364432E-01eV         Bonded
Si3   core Phase = -  3                                              single   
Si3   core                                                              
X     core
--------------------------------------------------------------------------------
X     core    Standard      Torsional const 0.97569972    eV         Bonded
C2    core Phase = -  2                                              double   
C2    core                                                              
X     core
--------------------------------------------------------------------------------
C2    core    Inversion     Inversion K      1.7345773    eV         Bonded
X     core                                                                    
X     core                                                              
X     core
--------------------------------------------------------------------------------

********************************************************************************
*  Output for configuration   1                                                *
********************************************************************************


  Components of energy : 

--------------------------------------------------------------------------------
  Interatomic potentials     =           2.30683900 eV    
  Three-body potentials      =          42.65169319 eV    
  Four-body potentials       =           8.98913332 eV    
  Improper torsions          =           0.00000000 eV    
  Out of plane potentials    =           0.00000000 eV    
  Monopole - monopole (real) =           0.00000000 eV    
  Monopole - monopole (recip)=           0.00000000 eV    
  Monopole - monopole (total)=           0.00000000 eV    
--------------------------------------------------------------------------------
  Total lattice energy       =          53.94766551 eV    
--------------------------------------------------------------------------------
  Total lattice energy       =            5205.1251 kJ/(mole unit cells)
--------------------------------------------------------------------------------

  Peak dynamic memory used =       1.02 MB 


  Timing analysis for GULP :

--------------------------------------------------------------------------------
  Task / Subroutine                                          Time (Seconds)
--------------------------------------------------------------------------------
  Calculation of real space energy and derivatives                0.0503
  Calculation of three-body energy and derivatives                0.0178
  Calculation of four-body energy and derivatives                 0.0167
  Calculation of molecules and connectivity                       0.0593
--------------------------------------------------------------------------------
  Total CPU time                                                  0.1549
--------------------------------------------------------------------------------


  Job Finished at 11:56.22 31st March      2020                               

