********************************************************************************
*                       GENERAL UTILITY LATTICE PROGRAM                        *
*                                 Julian Gale                                  *
*                       Curtin Institute for Computation                       *
*                           Department of Chemistry                            *
*                    Curtin University, Western Australia                      *
********************************************************************************
* Version = 5.1.1 * Last modified =  11th April 2019                           *
********************************************************************************
*  single       - perform a single point run                                   *
*  md           - perform molecular dynamics run                               *
*  conv         - constant volume calculation                                  *
********************************************************************************
* ASE calculation                                                              *
********************************************************************************


  Job Started  at 16:45.19  7th May        2020                               

  Number of CPUs =     1


  Total number of configurations input =      1

********************************************************************************
*  Input for Configuration =   1                                               *
********************************************************************************

  Formula = O48Si24                                                     

  Number of irreducible atoms/shells =     120


  Total number atoms/shells =     120

  Dimensionality = 3               :  Bulk   



  Cartesian lattice vectors (Angstroms) :

       12.494000    0.000000    0.000000
       -6.247000   10.820121    0.000000
        0.000000    0.000000   10.508000

  Cell parameters (Angstroms/Degrees):

  a =      12.4940    alpha =  90.0000
  b =      12.4940    beta  =  90.0000
  c =      10.5080    gamma = 120.0000

  Initial cell volume =        1420.540758 Angs**3

  Temperature of configuration =  450.0     K 

  Pressure of configuration =         0.000 GPa 

  Fractional coordinates of asymmetric unit :

--------------------------------------------------------------------------------
   No.  Atomic       x           y          z         Charge      Occupancy
        Label      (Frac)      (Frac)     (Frac)        (e)         (Frac)  
--------------------------------------------------------------------------------
      1 O312  c    0.000000 *  0.356500 *  0.250000 *   0.86902    1.000000    
      2 O312  c    0.643500 *  0.643500 *  0.250000 *   0.86902    1.000000    
      3 O312  c    0.356500 *  0.000000 *  0.250000 *   0.86902    1.000000    
      4 O312  c    0.000000 *  0.643500 *  0.000000 *   0.86902    1.000000    
      5 O312  c    0.356500 *  0.356500 *  0.000000 *   0.86902    1.000000    
      6 O312  c    0.643500 *  0.000000 *  0.000000 *   0.86902    1.000000    
      7 O312  c    0.643500 *  0.000000 *  0.250000 *   0.86902    1.000000    
      8 O312  c    0.356500 *  0.356500 *  0.250000 *   0.86902    1.000000    
      9 O312  c    0.000000 *  0.643500 *  0.250000 *   0.86902    1.000000    
     10 O312  c    0.356500 *  0.000000 *  0.000000 *   0.86902    1.000000    
     11 O312  c    0.643500 *  0.643500 *  0.000000 *   0.86902    1.000000    
     12 O312  c    0.000000 *  0.356500 *  0.000000 *   0.86902    1.000000    
     13 O312  c    0.198600 *  0.397200 *  0.375000 *   0.86902    1.000000    
     14 O312  c    0.602800 *  0.801400 *  0.375000 *   0.86902    1.000000    
     15 O312  c    0.198600 *  0.801400 *  0.375000 *   0.86902    1.000000    
     16 O312  c    0.801400 *  0.602800 *  0.125000 *   0.86902    1.000000    
     17 O312  c    0.397200 *  0.198600 *  0.125000 *   0.86902    1.000000    
     18 O312  c    0.801400 *  0.198600 *  0.125000 *   0.86902    1.000000    
     19 O312  c    0.129900 *  0.565000 *  0.375000 *   0.86902    1.000000    
     20 O312  c    0.435000 *  0.564900 *  0.375000 *   0.86902    1.000000    
     21 O312  c    0.435100 *  0.870100 *  0.375000 *   0.86902    1.000000    
     22 O312  c    0.870100 *  0.435000 *  0.125000 *   0.86902    1.000000    
     23 O312  c    0.565000 *  0.435100 *  0.125000 *   0.86902    1.000000    
     24 O312  c    0.564900 *  0.129900 *  0.125000 *   0.86902    1.000000    
     25 Si    c    0.082200 *  0.419000 *  0.375000 *   4.00000    1.000000    
     26 Si    c    0.581000 *  0.663200 *  0.375000 *   4.00000    1.000000    
     27 Si    c    0.336800 *  0.917800 *  0.375000 *   4.00000    1.000000    
     28 Si    c    0.917800 *  0.581000 *  0.125000 *   4.00000    1.000000    
     29 Si    c    0.419000 *  0.336800 *  0.125000 *   4.00000    1.000000    
     30 Si    c    0.663200 *  0.082200 *  0.125000 *   4.00000    1.000000    
     31 Si    c    0.581000 *  0.917800 *  0.375000 *   4.00000    1.000000    
     32 Si    c    0.336800 *  0.419000 *  0.375000 *   4.00000    1.000000    
     33 Si    c    0.082200 *  0.663200 *  0.375000 *   4.00000    1.000000    
     34 Si    c    0.419000 *  0.082200 *  0.125000 *   4.00000    1.000000    
     35 Si    c    0.663200 *  0.581000 *  0.125000 *   4.00000    1.000000    
     36 Si    c    0.917800 *  0.336800 *  0.125000 *   4.00000    1.000000    
     37 O312  c    0.000000 *  0.356500 *  0.750000 *   0.86902    1.000000    
     38 O312  c    0.643500 *  0.643500 *  0.750000 *   0.86902    1.000000    
     39 O312  c    0.356500 *  0.000000 *  0.750000 *   0.86902    1.000000    
     40 O312  c    0.000000 *  0.643500 *  0.500000 *   0.86902    1.000000    
     41 O312  c    0.356500 *  0.356500 *  0.500000 *   0.86902    1.000000    
     42 O312  c    0.643500 *  0.000000 *  0.500000 *   0.86902    1.000000    
     43 O312  c    0.643500 *  0.000000 *  0.750000 *   0.86902    1.000000    
     44 O312  c    0.356500 *  0.356500 *  0.750000 *   0.86902    1.000000    
     45 O312  c    0.000000 *  0.643500 *  0.750000 *   0.86902    1.000000    
     46 O312  c    0.356500 *  0.000000 *  0.500000 *   0.86902    1.000000    
     47 O312  c    0.643500 *  0.643500 *  0.500000 *   0.86902    1.000000    
     48 O312  c    0.000000 *  0.356500 *  0.500000 *   0.86902    1.000000    
     49 O312  c    0.198600 *  0.397200 *  0.875000 *   0.86902    1.000000    
     50 O312  c    0.602800 *  0.801400 *  0.875000 *   0.86902    1.000000    
     51 O312  c    0.198600 *  0.801400 *  0.875000 *   0.86902    1.000000    
     52 O312  c    0.801400 *  0.602800 *  0.625000 *   0.86902    1.000000    
     53 O312  c    0.397200 *  0.198600 *  0.625000 *   0.86902    1.000000    
     54 O312  c    0.801400 *  0.198600 *  0.625000 *   0.86902    1.000000    
     55 O312  c    0.129900 *  0.565000 *  0.875000 *   0.86902    1.000000    
     56 O312  c    0.435000 *  0.564900 *  0.875000 *   0.86902    1.000000    
     57 O312  c    0.435100 *  0.870100 *  0.875000 *   0.86902    1.000000    
     58 O312  c    0.870100 *  0.435000 *  0.625000 *   0.86902    1.000000    
     59 O312  c    0.565000 *  0.435100 *  0.625000 *   0.86902    1.000000    
     60 O312  c    0.564900 *  0.129900 *  0.625000 *   0.86902    1.000000    
     61 Si    c    0.082200 *  0.419000 *  0.875000 *   4.00000    1.000000    
     62 Si    c    0.581000 *  0.663200 *  0.875000 *   4.00000    1.000000    
     63 Si    c    0.336800 *  0.917800 *  0.875000 *   4.00000    1.000000    
     64 Si    c    0.917800 *  0.581000 *  0.625000 *   4.00000    1.000000    
     65 Si    c    0.419000 *  0.336800 *  0.625000 *   4.00000    1.000000    
     66 Si    c    0.663200 *  0.082200 *  0.625000 *   4.00000    1.000000    
     67 Si    c    0.581000 *  0.917800 *  0.875000 *   4.00000    1.000000    
     68 Si    c    0.336800 *  0.419000 *  0.875000 *   4.00000    1.000000    
     69 Si    c    0.082200 *  0.663200 *  0.875000 *   4.00000    1.000000    
     70 Si    c    0.419000 *  0.082200 *  0.625000 *   4.00000    1.000000    
     71 Si    c    0.663200 *  0.581000 *  0.625000 *   4.00000    1.000000    
     72 Si    c    0.917800 *  0.336800 *  0.625000 *   4.00000    1.000000    
     73 O312  s    0.000000 *  0.356500 *  0.250000 *  -2.86902    1.000000    
     74 O312  s    0.643500 *  0.643500 *  0.250000 *  -2.86902    1.000000    
     75 O312  s    0.356500 *  0.000000 *  0.250000 *  -2.86902    1.000000    
     76 O312  s    0.000000 *  0.643500 *  0.000000 *  -2.86902    1.000000    
     77 O312  s    0.356500 *  0.356500 *  0.000000 *  -2.86902    1.000000    
     78 O312  s    0.643500 *  0.000000 *  0.000000 *  -2.86902    1.000000    
     79 O312  s    0.643500 *  0.000000 *  0.250000 *  -2.86902    1.000000    
     80 O312  s    0.356500 *  0.356500 *  0.250000 *  -2.86902    1.000000    
     81 O312  s    0.000000 *  0.643500 *  0.250000 *  -2.86902    1.000000    
     82 O312  s    0.356500 *  0.000000 *  0.000000 *  -2.86902    1.000000    
     83 O312  s    0.643500 *  0.643500 *  0.000000 *  -2.86902    1.000000    
     84 O312  s    0.000000 *  0.356500 *  0.000000 *  -2.86902    1.000000    
     85 O312  s    0.198600 *  0.397200 *  0.375000 *  -2.86902    1.000000    
     86 O312  s    0.602800 *  0.801400 *  0.375000 *  -2.86902    1.000000    
     87 O312  s    0.198600 *  0.801400 *  0.375000 *  -2.86902    1.000000    
     88 O312  s    0.801400 *  0.602800 *  0.125000 *  -2.86902    1.000000    
     89 O312  s    0.397200 *  0.198600 *  0.125000 *  -2.86902    1.000000    
     90 O312  s    0.801400 *  0.198600 *  0.125000 *  -2.86902    1.000000    
     91 O312  s    0.129900 *  0.565000 *  0.375000 *  -2.86902    1.000000    
     92 O312  s    0.435000 *  0.564900 *  0.375000 *  -2.86902    1.000000    
     93 O312  s    0.435100 *  0.870100 *  0.375000 *  -2.86902    1.000000    
     94 O312  s    0.870100 *  0.435000 *  0.125000 *  -2.86902    1.000000    
     95 O312  s    0.565000 *  0.435100 *  0.125000 *  -2.86902    1.000000    
     96 O312  s    0.564900 *  0.129900 *  0.125000 *  -2.86902    1.000000    
     97 O312  s    0.000000 *  0.356500 *  0.750000 *  -2.86902    1.000000    
     98 O312  s    0.643500 *  0.643500 *  0.750000 *  -2.86902    1.000000    
     99 O312  s    0.356500 *  0.000000 *  0.750000 *  -2.86902    1.000000    
    100 O312  s    0.000000 *  0.643500 *  0.500000 *  -2.86902    1.000000    
    101 O312  s    0.356500 *  0.356500 *  0.500000 *  -2.86902    1.000000    
    102 O312  s    0.643500 *  0.000000 *  0.500000 *  -2.86902    1.000000    
    103 O312  s    0.643500 *  0.000000 *  0.750000 *  -2.86902    1.000000    
    104 O312  s    0.356500 *  0.356500 *  0.750000 *  -2.86902    1.000000    
    105 O312  s    0.000000 *  0.643500 *  0.750000 *  -2.86902    1.000000    
    106 O312  s    0.356500 *  0.000000 *  0.500000 *  -2.86902    1.000000    
    107 O312  s    0.643500 *  0.643500 *  0.500000 *  -2.86902    1.000000    
    108 O312  s    0.000000 *  0.356500 *  0.500000 *  -2.86902    1.000000    
    109 O312  s    0.198600 *  0.397200 *  0.875000 *  -2.86902    1.000000    
    110 O312  s    0.602800 *  0.801400 *  0.875000 *  -2.86902    1.000000    
    111 O312  s    0.198600 *  0.801400 *  0.875000 *  -2.86902    1.000000    
    112 O312  s    0.801400 *  0.602800 *  0.625000 *  -2.86902    1.000000    
    113 O312  s    0.397200 *  0.198600 *  0.625000 *  -2.86902    1.000000    
    114 O312  s    0.801400 *  0.198600 *  0.625000 *  -2.86902    1.000000    
    115 O312  s    0.129900 *  0.565000 *  0.875000 *  -2.86902    1.000000    
    116 O312  s    0.435000 *  0.564900 *  0.875000 *  -2.86902    1.000000    
    117 O312  s    0.435100 *  0.870100 *  0.875000 *  -2.86902    1.000000    
    118 O312  s    0.870100 *  0.435000 *  0.625000 *  -2.86902    1.000000    
    119 O312  s    0.565000 *  0.435100 *  0.625000 *  -2.86902    1.000000    
    120 O312  s    0.564900 *  0.129900 *  0.625000 *  -2.86902    1.000000    
--------------------------------------------------------------------------------



********************************************************************************
*  General input information                                                   *
********************************************************************************

  Species output for all configurations : 

--------------------------------------------------------------------------------
  Species    Type    Atomic    Atomic    Charge       Radii (Angs)     Library
                     Number     Mass       (e)     Cova   Ionic  VDW   Symbol
--------------------------------------------------------------------------------
    Si       Core       14      28.09   4.000000   1.200  0.000  2.100          
    O312     Core        8      14.40   0.869020   0.730  0.000  1.360          
    O312     Shell       8       1.60  -2.869020   0.730  0.000  1.360          
--------------------------------------------------------------------------------


  Lattice summation method               =    Ewald          (3-D)
                                         =    Parry          (2-D)
                                         =    Saunders et al (1-D)
  Accuracy factor for lattice sums       =   12.000


  Time limit = Infinity

  Maximum range for interatomic potentials =        12.000000 Angstroms

  Taper potentials to zero over   1.0000 Angstroms using polynomial

  General interatomic potentials :

--------------------------------------------------------------------------------
Atom  Types   Potential      Parameter       Value         Units   Cutoffs(Ang)
  1     2                                                            Min /  Max 
--------------------------------------------------------------------------------
Si   c O312 s Buckingham    Buckingham A     1283.9070    eV        0.000 10.000
                            Buckingham rho  0.32052000    Ang       
                            Buckingham C     10.661580    eV*Ang^6  
--------------------------------------------------------------------------------
O31  c Si   c Buckingham    Buckingham A     983.55700    eV        0.000 10.000
                            Buckingham rho  0.32052000    Ang       
                            Buckingham C     10.661580    eV*Ang^6  
--------------------------------------------------------------------------------
O312 s O312 s Buckingham    Buckingham A     22764.000    eV        0.000 12.000
                            Buckingham rho  0.14900000    Ang       
                            Buckingham C     27.879000    eV*Ang^6  
--------------------------------------------------------------------------------
O31  c O312 s Buckingham    Buckingham A     22764.000    eV        0.000 12.000
                            Buckingham rho  0.14900000    Ang       
                            Buckingham C     27.879000    eV*Ang^6  
--------------------------------------------------------------------------------
O31  c O31  c Buckingham    Buckingham A     22764.000    eV        0.000 12.000
                            Buckingham rho  0.14900000    Ang       
                            Buckingham C     27.879000    eV*Ang^6  
--------------------------------------------------------------------------------
H31  c O312 s Buckingham    Buckingham A     311.97000    eV        0.000 12.000
                            Buckingham rho  0.25000000    Ang       
                            Buckingham C     0.0000000    eV*Ang^6  
--------------------------------------------------------------------------------
H31  c O31  c Morse-Coulomb Morse  De        7.0525000    eV        0.000  1.400
                            Morse  a0        2.1986000    Ang^-1    
                            Morse  r0       0.94850000    Ang       
--------------------------------------------------------------------------------
O312 c O312 s Spring (c-s)  Spring k 2       74.920000    eV*Ang^-2 0.000  0.800
                            Spring k 4       0.0000000    eV*Ang^-4 
--------------------------------------------------------------------------------

  General Three-body potentials :

--------------------------------------------------------------------------------
  Atoms       Potential      Parameter       Value         Units   Cutoffs(Ang)
  1 / 2 / 3                                                          Min /  Max 
--------------------------------------------------------------------------------
Si    core    Harmonic      Three-body cnst  2.0972400    eV*rad^-2 0.000  1.900
O312  shel                  Three-body angl  109.47000    degrees   0.000  1.900
O312  shel                  Three-body k4    0.0000000    eV*rad^-4 0.000  3.500
                            Three-body k3    0.0000000    eV*rad^-3 
--------------------------------------------------------------------------------
Si    core    Harmonic      Three-body cnst  2.0972400    eV*rad^-2 0.000  1.900
O31   core                  Three-body angl  109.47000    degrees   0.000  1.900
O312  shel                  Three-body k4    0.0000000    eV*rad^-4 0.000  3.500
                            Three-body k3    0.0000000    eV*rad^-3 
--------------------------------------------------------------------------------

********************************************************************************
*  Output for configuration   1                                                *
********************************************************************************


  Components of energy : 

--------------------------------------------------------------------------------
  Interatomic potentials     =         742.15526644 eV    
  Three-body potentials      =           0.00138823 eV    
  Monopole - monopole (real) =       -2709.75702372 eV    
  Monopole - monopole (recip)=       -1098.02696235 eV    
  Monopole - monopole (total)=       -3807.78398607 eV    
--------------------------------------------------------------------------------
  Total lattice energy       =       -3065.62733140 eV    
--------------------------------------------------------------------------------
  Total lattice energy       =         -295786.1751 kJ/(mole unit cells)
--------------------------------------------------------------------------------

  Equations of motion will be integrated using the leapfrog Verlet algorithm.

  Core-shell wave numbers:

    O312:    3761.37 cm**(-1)

  Above wave numbers must be larger than the vibrational modes for this system.


********************************************************************************
*  Molecular Dynamics                                                          *
********************************************************************************

  Canonical ensemble (NVT) to be used

  Friction for temperature bath =           0.050000
  No. of mobile ions        =                 72

  No. of degrees of freedom =                213

  Time step                 =           0.000100 ps
  Equilibration time        =           0.050000 ps
  Production time           =           0.050000 ps
  Scaling time              =           0.050000 ps
  Scaling frequency         =           0.000100 ps
  Sampling frequency        =           0.010000 ps
  Write frequency           =           0.010000 ps
  TD-Force start time       =           0.000000 ps
  TD-Field start time       =           0.000000 ps



  Molecular dynamics equilibration :

  ** Time :            0.01000 ps :
     Properties:                   Instantaneous       Averaged
       Kinetic energy    (eV) =       4.109137          4.109137
       Potential energy  (eV) =   -3079.209430      -3079.209430
       Total energy      (eV) =   -3075.100293      -3075.100293
       Temperature       (K)  =     447.741864        447.741864
       C/S temperature   (K)  =       0.723642          0.723642
       Pressure         (GPa) =      -2.426437         -2.426437
  ** Time :            0.02000 ps :
     Properties:                   Instantaneous       Averaged
       Kinetic energy    (eV) =       4.141743          4.125440
       Potential energy  (eV) =   -3079.746868      -3079.478149
       Total energy      (eV) =   -3075.605126      -3075.352709
       Temperature       (K)  =     451.294619        449.518242
       C/S temperature   (K)  =       0.867040          0.795341
       Pressure         (GPa) =      -0.436983         -1.431710
  ** Time :            0.03000 ps :
     Properties:                   Instantaneous       Averaged
       Kinetic energy    (eV) =       4.127662          4.126181
       Potential energy  (eV) =   -3078.547781      -3079.168027
       Total energy      (eV) =   -3074.420120      -3075.041846
       Temperature       (K)  =     449.760358        449.598947
       C/S temperature   (K)  =       0.349894          0.646859
       Pressure         (GPa) =      -0.044461         -0.969294
  ** Time :            0.04000 ps :
     Properties:                   Instantaneous       Averaged
       Kinetic energy    (eV) =       4.139212          4.129439
       Potential energy  (eV) =   -3080.799657      -3079.575934
       Total energy      (eV) =   -3076.660445      -3075.446496
       Temperature       (K)  =     451.018928        449.953942
       C/S temperature   (K)  =       0.691368          0.657986
       Pressure         (GPa) =      -1.686391         -1.148568
  ** Time :            0.05000 ps :
     Properties:                   Instantaneous       Averaged
       Kinetic energy    (eV) =       4.096378          4.122826
       Potential energy  (eV) =   -3079.568076      -3079.574363
       Total energy      (eV) =   -3075.471698      -3075.451536
       Temperature       (K)  =     446.351597        449.233473
       C/S temperature   (K)  =       0.425834          0.611556
       Pressure         (GPa) =      -3.669861         -1.652827

  Molecular dynamics production :

  ** Time :            0.01000 ps :
     Properties:                   Instantaneous       Averaged
       Kinetic energy    (eV) =       3.803269          3.803269
       Potential energy  (eV) =   -3079.930531      -3079.930531
       Total energy      (eV) =   -3076.127262      -3076.127262
       Temperature       (K)  =     414.413731        414.413731
       C/S temperature   (K)  =       0.402001          0.402001
       Pressure         (GPa) =      -5.482000         -5.482000
  ** Time :            0.02000 ps :
     Properties:                   Instantaneous       Averaged
       Kinetic energy    (eV) =       3.969239          3.886254
       Potential energy  (eV) =   -3078.639378      -3079.284955
       Total energy      (eV) =   -3074.670139      -3075.398700
       Temperature       (K)  =     432.498220        423.455976
       C/S temperature   (K)  =       0.658079          0.530040
       Pressure         (GPa) =      -4.494727         -4.988364
  ** Time :            0.03000 ps :
     Properties:                   Instantaneous       Averaged
       Kinetic energy    (eV) =       3.892703          3.888404
       Potential energy  (eV) =   -3078.947102      -3079.172337
       Total energy      (eV) =   -3075.054399      -3075.283933
       Temperature       (K)  =     424.158684        423.690212
       C/S temperature   (K)  =       0.218585          0.426222
       Pressure         (GPa) =      -3.416582         -4.464436
  ** Time :            0.04000 ps :
     Properties:                   Instantaneous       Averaged
       Kinetic energy    (eV) =       3.942792          3.902001
       Potential energy  (eV) =   -3079.347527      -3079.216135
       Total energy      (eV) =   -3075.404735      -3075.314134
       Temperature       (K)  =     429.616515        425.171787
       C/S temperature   (K)  =       0.603525          0.470547
       Pressure         (GPa) =      -2.192053         -3.896340
  ** Time :            0.05000 ps :
     Properties:                   Instantaneous       Averaged
       Kinetic energy    (eV) =       3.926789          3.906959
       Potential energy  (eV) =   -3081.615173      -3079.695942
       Total energy      (eV) =   -3077.688384      -3075.788984
       Temperature       (K)  =     427.872786        425.711987
       C/S temperature   (K)  =       0.616971          0.499832
       Pressure         (GPa) =      -2.818068         -3.680686

  Peak dynamic memory used =       0.90 MB 


  Timing analysis for GULP :

--------------------------------------------------------------------------------
  Task / Subroutine                                          Time (Seconds)
--------------------------------------------------------------------------------
  Calculation of reciprocal space energy and derivatives          1.0539
  Calculation of real space energy and derivatives               33.4654
  Calculation of three-body energy and derivatives                0.0249
  Calculation of matrix inversion                                 0.0006
  Molecular dynamics - update of geometry                         0.0067
  Molecular dynamics - predictor                                  0.0004
  Molecular dynamics - corrector                                  0.0068
  Molecular dynamics - velocity correction                        0.0028
  Global summation overhead                                       0.0005
--------------------------------------------------------------------------------
  Total CPU time                                                 34.5875
--------------------------------------------------------------------------------


  GULP ASCII trajectory file written as CAN.trj.trg


  Job Finished at 16:45.54  7th May        2020                               

